# vtk DataFile Version 3.0
Graph
ASCII
DATASET UNSTRUCTURED_GRID
POINTS 96 float
1.000000 0.500000 0.500000 
1.000000 0.500000 0.000000 
1.000000 0.200000 0.500000 
1.000000 0.200000 0.000000 
0.200000 0.500000 0.500000 
0.200000 0.500000 0.000000 
0.200000 0.200000 0.500000 
0.200000 0.200000 0.000000 
0.200000 0.200000 0.500000 
0.200000 0.200000 0.000000 
0.200000 0.000000 0.500000 
0.200000 0.000000 0.000000 
0.000000 0.200000 0.500000 
0.000000 0.200000 0.000000 
0.000000 0.000000 0.500000 
0.000000 0.000000 0.000000 
0.500000 0.200000 0.500000 
0.500000 0.200000 0.000000 
0.500000 0.000000 0.500000 
0.500000 0.000000 0.000000 
0.200000 0.200000 0.500000 
0.200000 0.200000 0.000000 
0.200000 0.000000 0.500000 
0.200000 0.000000 0.000000 
1.000000 0.200000 0.500000 
1.000000 0.200000 0.000000 
1.000000 0.000000 0.500000 
1.000000 0.000000 0.000000 
0.500000 0.200000 0.500000 
0.500000 0.200000 0.000000 
0.500000 0.000000 0.500000 
0.500000 0.000000 0.000000 
0.200000 0.500000 0.500000 
0.200000 0.500000 0.000000 
0.200000 0.200000 0.500000 
0.200000 0.200000 0.000000 
0.000000 0.500000 0.500000 
0.000000 0.500000 0.000000 
0.000000 0.200000 0.500000 
0.000000 0.200000 0.000000 
1.000000 1.000000 0.500000 
1.000000 1.000000 0.000000 
1.000000 0.500000 0.500000 
1.000000 0.500000 0.000000 
0.000000 1.000000 0.500000 
0.000000 1.000000 0.000000 
0.000000 0.500000 0.500000 
0.000000 0.500000 0.000000 
1.000000 0.500000 1.000000 
1.000000 0.500000 0.500000 
1.000000 0.200000 1.000000 
1.000000 0.200000 0.500000 
0.200000 0.500000 1.000000 
0.200000 0.500000 0.500000 
0.200000 0.200000 1.000000 
0.200000 0.200000 0.500000 
0.200000 0.200000 1.000000 
0.200000 0.200000 0.500000 
0.200000 0.000000 1.000000 
0.200000 0.000000 0.500000 
0.000000 0.200000 1.000000 
0.000000 0.200000 0.500000 
0.000000 0.000000 1.000000 
0.000000 0.000000 0.500000 
0.500000 0.200000 1.000000 
0.500000 0.200000 0.500000 
0.500000 0.000000 1.000000 
0.500000 0.000000 0.500000 
0.200000 0.200000 1.000000 
0.200000 0.200000 0.500000 
0.200000 0.000000 1.000000 
0.200000 0.000000 0.500000 
1.000000 0.200000 1.000000 
1.000000 0.200000 0.500000 
1.000000 0.000000 1.000000 
1.000000 0.000000 0.500000 
0.500000 0.200000 1.000000 
0.500000 0.200000 0.500000 
0.500000 0.000000 1.000000 
0.500000 0.000000 0.500000 
0.200000 0.500000 1.000000 
0.200000 0.500000 0.500000 
0.200000 0.200000 1.000000 
0.200000 0.200000 0.500000 
0.000000 0.500000 1.000000 
0.000000 0.500000 0.500000 
0.000000 0.200000 1.000000 
0.000000 0.200000 0.500000 
1.000000 1.000000 1.000000 
1.000000 1.000000 0.500000 
1.000000 0.500000 1.000000 
1.000000 0.500000 0.500000 
0.000000 1.000000 1.000000 
0.000000 1.000000 0.500000 
0.000000 0.500000 1.000000 
0.000000 0.500000 0.500000 
CELLS 12 108
8  0 1 2 3 4 5 6 7
8  8 9 10 11 12 13 14 15
8  16 17 18 19 20 21 22 23
8  24 25 26 27 28 29 30 31
8  32 33 34 35 36 37 38 39
8  40 41 42 43 44 45 46 47

8  48 49 50 51 52 53 54 55
8  56 57 58 59 60 61 62 63
8  64 65 66 67 68 69 70 71
8  72 73 74 75 76 77 78 79
8  80 81 82 83 84 85 86 87
8  88 89 90 91 92 93 94 95

CELL_TYPES 12
11
11
11
11
11
11
11
11
11
11
11
11
CELL_DATA 12
COLOR_SCALARS data 4
0.500004 0.000000 0.000000 1.0
0.565769 0.000000 0.000000 1.0
0.877803 0.000000 0.000000 1.0
0.729325 0.000000 0.000000 1.0
0.766384 0.000000 0.000000 1.0
0.609480 0.000000 0.000000 1.0

0.000000 0.523522 0.000000 1.0
0.000000 0.839432 0.000000 1.0
0.000000 0.839648 0.000000 1.0
0.000000 0.967346 0.000000 1.0
0.000000 0.691751 0.000000 1.0
0.000000 0.759708 0.000000 1.0

