<VTKFile type="PolyData" version="1.0" byte_order="LittleEndian" header_type="UInt64">
  <PolyData>
    <Piece NumberOfPoints="300" NumberOfVerts="300">
      <Points>
        <DataArray type="Float64" Name="Points" NumberOfComponents="3" format="ascii">
0.191120 0.542772 0.939108
0.933523 0.710147 0.682257
0.228446 0.513097 0.438905
0.700754 0.436179 0.434735
0.751419 0.522504 0.196855
0.666369 0.261523 0.050127
0.573708 0.768383 0.022587
0.750211 0.313137 0.190846
0.507718 0.273360 0.264172
0.670213 0.932599 0.212948
0.586036 0.006718 0.574775
0.336361 0.205412 0.440432
0.553825 0.740555 0.064820
0.764503 0.468990 0.878126
0.323438 0.181610 0.943831
0.329992 0.043079 0.688576
0.095793 0.009830 0.801123
0.349360 0.212307 0.266992
0.368002 0.414173 0.890974
0.471037 0.198481 0.584590
0.363141 0.971788 0.567570
0.193627 0.047362 0.347666
0.078823 0.824102 0.303324
0.892978 0.147594 0.589520
0.768770 0.021556 0.879563
0.173734 0.131239 0.179741
0.392798 0.563805 0.325374
0.241990 0.120892 0.993650
0.950192 0.297734 0.372967
0.618250 0.020735 0.852418
0.507541 0.634685 0.435244
0.857826 0.812930 0.263612
0.905927 0.426169 0.242918
0.551551 0.826687 0.394286
0.107476 0.018033 0.122876
0.027658 0.315680 0.861391
0.864926 0.042390 0.667640
0.937087 0.686836 0.209923
0.960032 0.214003 0.456393
0.838234 0.705078 0.379994
0.743514 0.670946 0.671558
0.434425 0.879627 0.032296
0.954834 0.877288 0.061284
0.239914 0.979709 0.690876
0.334337 0.292961 0.194138
0.397971 0.064623 0.159310
0.639743 0.559217 0.628284
0.319393 0.698422 0.808751
0.534981 0.605794 0.215716
0.932453 0.633508 0.954549
0.860046 0.170877 0.901505
0.581338 0.696935 0.013719
0.273513 0.037100 0.801600
0.857205 0.467507 0.627542
0.752721 0.974119 0.427029
0.371101 0.245019 0.119228
0.733240 0.911167 0.240259
0.659184 0.906727 0.920069
0.723200 0.826380 0.620956
0.665010 0.286470 0.644219
0.550957 0.831365 0.249487
0.136109 0.843937 0.995786
0.958540 0.434625 0.812213
0.025767 0.297417 0.212592
0.956965 0.060432 0.382506
0.647490 0.425935 0.083679
0.492244 0.694858 0.917290
0.595547 0.101746 0.165874
0.715210 0.552892 0.556047
0.727179 0.190203 0.479701
0.452899 0.191989 0.800239
0.189775 0.575804 0.255534
0.787141 0.426864 0.467209
0.674216 0.630124 0.240190
0.921028 0.344758 0.550895
0.051571 0.205424 0.679874
0.450943 0.397533 0.256193
0.520349 0.229449 0.854270
0.444768 0.451041 0.509270
0.033064 0.374076 0.800554
0.524198 0.393980 0.552048
0.743037 0.632495 0.584216
0.264430 0.570424 0.532054
0.538226 0.023322 0.450331
0.513191 0.768138 0.952403
0.790408 0.301653 0.043437
0.328417 0.622360 0.766373
0.186272 0.564519 0.339561
0.251027 0.787802 0.694365
0.045131 0.074015 0.734981
0.066324 0.363983 0.337433
0.129496 0.763412 0.395678
0.451936 0.568539 0.719855
0.084249 0.651408 0.904191
0.484451 0.939076 0.217938
0.355350 0.994250 0.900963
0.195476 0.033896 0.116821
0.772962 0.692030 0.614234
0.727780 0.125820 0.608612
0.602774 0.518449 0.155444
0.369033 0.299516 0.011738
0.475438 0.421222 0.071321
0.488239 0.462790 0.163958
0.386197 0.484129 0.086628
0.120758 0.061846 0.487070
0.462610 0.389263 0.483895
0.228595 0.232147 0.135940
0.499425 0.308550 0.230081
0.087310 0.042081 0.378270
0.188056 0.031825 0.387216
0.345997 0.312009 0.096517
0.398427 0.201282 0.242778
0.354047 0.115364 0.036240
0.228931 0.360446 0.417346
0.143610 0.161319 0.339278
0.282976 0.258190 0.285882
0.432920 0.326511 0.162626
0.263382 0.388375 0.282068
0.135151 0.377638 0.265092
0.369358 0.023984 0.158936
0.321014 0.248223 0.173368
0.226998 0.475005 0.495730
0.019942 0.433206 0.393383
0.434013 0.141503 0.051140
0.227366 0.152198 0.056331
0.038190 0.345733 0.346530
0.197246 0.386069 0.292313
0.130798 0.337481 0.042791
0.137051 0.472957 0.441009
0.226778 0.190582 0.355922
0.487073 0.487445 0.312289
0.028843 0.018109 0.043890
0.470008 0.105539 0.377718
0.241189 0.290279 0.357752
0.412688 0.177427 0.496471
0.256056 0.231897 0.011382
0.147882 0.234706 0.314979
0.357467 0.185318 0.495461
0.272803 0.390637 0.400779
0.092272 0.125044 0.279622
0.388039 0.459262 0.441601
0.399029 0.140674 0.412037
0.231982 0.211471 0.468093
0.457421 0.090837 0.142090
0.152496 0.035710 0.201575
0.002651 0.399729 0.457187
0.464700 0.132774 0.078359
0.170972 0.140148 0.175650
0.385566 0.107831 0.386325
0.347609 0.148431 0.170577
0.164102 0.297584 0.335798
0.176064 0.100559 0.327196
0.172839 0.028758 0.360324
0.048560 0.359953 0.428980
0.434215 0.161937 0.105788
0.491057 0.168019 0.295184
0.393718 0.343154 0.049346
0.165409 0.175407 0.210349
0.240776 0.406808 0.304134
0.052120 0.236228 0.332001
0.332446 0.312939 0.490474
0.384584 0.136616 0.039850
0.041979 0.277051 0.488044
0.152317 0.417591 0.058421
0.077951 0.451642 0.368014
0.251505 0.324998 0.187823
0.050005 0.213619 0.455739
0.283974 0.045462 0.410410
0.177204 0.477689 0.255347
0.390044 0.208570 0.444316
0.199245 0.207366 0.139578
0.025771 0.444025 0.393377
0.130163 0.128066 0.034143
0.220677 0.493486 0.322588
0.010527 0.407131 0.456489
0.098184 0.304481 0.145582
0.303170 0.318027 0.340675
0.340671 0.495759 0.253506
0.050337 0.403730 0.441738
0.131048 0.489254 0.144981
0.375028 0.425500 0.329455
0.462892 0.329894 0.155832
0.017700 0.176812 0.303820
0.238059 0.297001 0.201085
0.285588 0.070994 0.398236
0.280854 0.271676 0.170450
0.158920 0.036350 0.356981
0.277225 0.099905 0.335509
0.166247 0.078997 0.057278
0.277047 0.351886 0.026585
0.187544 0.468093 0.186185
0.187124 0.369427 0.226338
0.126269 0.268142 0.486430
0.028362 0.476250 0.491052
0.463467 0.047069 0.362822
0.160605 0.086875 0.062252
0.133424 0.473771 0.125624
0.348983 0.328602 0.366171
0.003919 0.496709 0.174369
0.288525 0.016649 0.339237
0.118551 0.284626 0.040045
0.229319 0.051703 0.156612
0.289464 0.043055 0.230019
0.128697 0.237347 0.027330
0.083331 0.140340 0.062204
0.168957 0.146042 0.167754
0.211293 0.004162 0.154877
0.081112 0.084725 0.271467
0.221586 0.065918 0.040172
0.180773 0.137546 0.074526
0.266663 0.191928 0.168763
0.104026 0.075138 0.183329
0.169742 0.141202 0.247453
0.052619 0.159521 0.165625
0.213524 0.052483 0.036394
0.224958 0.120398 0.041162
0.018617 0.248016 0.121734
0.073585 0.177285 0.244851
0.088333 0.233388 0.028923
0.127583 0.004240 0.020761
0.134085 0.163042 0.138277
0.269481 0.009191 0.204128
0.125259 0.015738 0.046834
0.190405 0.026362 0.053137
0.219299 0.187878 0.296406
0.228715 0.090299 0.075487
0.114361 0.175878 0.060813
0.025169 0.122417 0.028319
0.288496 0.108410 0.286945
0.183611 0.216238 0.182742
0.159681 0.195184 0.128106
0.295720 0.053621 0.143373
0.147892 0.222327 0.254465
0.172590 0.298237 0.155147
0.272134 0.257444 0.049840
0.035742 0.096029 0.128343
0.068981 0.043026 0.069018
0.219187 0.158450 0.013378
0.189143 0.053835 0.078823
0.043211 0.155552 0.039652
0.217259 0.231674 0.249962
0.164037 0.202389 0.252910
0.048510 0.152404 0.205957
0.204658 0.004322 0.044297
0.168889 0.224852 0.221542
0.137715 0.166512 0.026851
0.228219 0.042420 0.107482
0.022607 0.186198 0.240395
0.120443 0.264825 0.090921
0.056556 0.198868 0.089208
0.256396 0.168550 0.265397
0.266806 0.118624 0.035927
0.257922 0.096746 0.200882
0.255168 0.012391 0.065189
0.025979 0.031622 0.176754
0.049886 0.053168 0.106784
0.138538 0.173756 0.018395
0.123969 0.015724 0.263539
0.293842 0.133309 0.258649
0.157130 0.150916 0.269278
0.255548 0.230316 0.173530
0.176835 0.070607 0.000577
0.175628 0.097939 0.237882
0.274028 0.209767 0.006667
0.248491 0.146381 0.279762
0.078035 0.151517 0.259897
0.044696 0.234419 0.132030
0.258663 0.299681 0.109536
0.262694 0.052572 0.092809
0.147086 0.001923 0.204068
0.140134 0.081926 0.037603
0.282019 0.187575 0.264492
0.280932 0.291277 0.152808
0.165250 0.202107 0.199372
0.188213 0.294921 0.238358
0.181157 0.207082 0.154922
0.130117 0.006155 0.080761
0.215823 0.070212 0.074666
0.232166 0.207217 0.234931
0.143946 0.292738 0.154480
0.178165 0.008385 0.005120
0.044910 0.159371 0.097925
0.231587 0.260975 0.155817
0.200283 0.145669 0.077631
0.053339 0.121780 0.027141
0.183462 0.265249 0.160318
0.044482 0.157596 0.142178
0.166244 0.195940 0.041539
0.119972 0.224156 0.142231
0.116722 0.118538 0.208967
0.146648 0.156782 0.157538
0.087086 0.075396 0.233221
0.015056 0.042668 0.121880
0.245237 0.220832 0.095027
0.023365 0.068338 0.062054
0.270623 0.144397 0.249118
0.021136 0.101558 0.082519
0.258095 0.288331 0.149363
0.175789 0.280555 0.166442
0.131178 0.070647 0.282866
        </DataArray>
      </Points>
      <Verts>
        <DataArray type="Int64" Name="connectivity" format="ascii">
0
1
2
3
4
5
6
7
8
9
10
11
12
13
14
15
16
17
18
19
20
21
22
23
24
25
26
27
28
29
30
31
32
33
34
35
36
37
38
39
40
41
42
43
44
45
46
47
48
49
50
51
52
53
54
55
56
57
58
59
60
61
62
63
64
65
66
67
68
69
70
71
72
73
74
75
76
77
78
79
80
81
82
83
84
85
86
87
88
89
90
91
92
93
94
95
96
97
98
99
100
101
102
103
104
105
106
107
108
109
110
111
112
113
114
115
116
117
118
119
120
121
122
123
124
125
126
127
128
129
130
131
132
133
134
135
136
137
138
139
140
141
142
143
144
145
146
147
148
149
150
151
152
153
154
155
156
157
158
159
160
161
162
163
164
165
166
167
168
169
170
171
172
173
174
175
176
177
178
179
180
181
182
183
184
185
186
187
188
189
190
191
192
193
194
195
196
197
198
199
200
201
202
203
204
205
206
207
208
209
210
211
212
213
214
215
216
217
218
219
220
221
222
223
224
225
226
227
228
229
230
231
232
233
234
235
236
237
238
239
240
241
242
243
244
245
246
247
248
249
250
251
252
253
254
255
256
257
258
259
260
261
262
263
264
265
266
267
268
269
270
271
272
273
274
275
276
277
278
279
280
281
282
283
284
285
286
287
288
289
290
291
292
293
294
295
296
297
298
299
        </DataArray>
                <DataArray type="Int64" Name="offsets" format="ascii">
1
2
3
4
5
6
7
8
9
10
11
12
13
14
15
16
17
18
19
20
21
22
23
24
25
26
27
28
29
30
31
32
33
34
35
36
37
38
39
40
41
42
43
44
45
46
47
48
49
50
51
52
53
54
55
56
57
58
59
60
61
62
63
64
65
66
67
68
69
70
71
72
73
74
75
76
77
78
79
80
81
82
83
84
85
86
87
88
89
90
91
92
93
94
95
96
97
98
99
100
101
102
103
104
105
106
107
108
109
110
111
112
113
114
115
116
117
118
119
120
121
122
123
124
125
126
127
128
129
130
131
132
133
134
135
136
137
138
139
140
141
142
143
144
145
146
147
148
149
150
151
152
153
154
155
156
157
158
159
160
161
162
163
164
165
166
167
168
169
170
171
172
173
174
175
176
177
178
179
180
181
182
183
184
185
186
187
188
189
190
191
192
193
194
195
196
197
198
199
200
201
202
203
204
205
206
207
208
209
210
211
212
213
214
215
216
217
218
219
220
221
222
223
224
225
226
227
228
229
230
231
232
233
234
235
236
237
238
239
240
241
242
243
244
245
246
247
248
249
250
251
252
253
254
255
256
257
258
259
260
261
262
263
264
265
266
267
268
269
270
271
272
273
274
275
276
277
278
279
280
281
282
283
284
285
286
287
288
289
290
291
292
293
294
295
296
297
298
299
300
        </DataArray>
      </Verts>
      <PointData>
        <DataArray type="Float32" Name="attr0" format="ascii">
0.852971
0.298533
0.374499
0.655972
0.865272
0.616035
0.082312
0.993332
0.232030
0.118355
0.019060
0.941814
0.603229
0.354637
0.711162
0.403963
0.921693
0.107294
0.245661
0.317058
0.957746
0.206326
0.653689
0.447751
0.341156
0.804321
0.467846
0.535770
0.772000
0.729917
0.258604
0.327000
0.439604
0.392555
0.004309
0.698174
0.478613
0.651305
0.659516
0.393817
0.532904
0.979128
0.023074
0.455661
0.010038
0.030554
0.945015
0.560831
0.795318
0.013792
0.788268
0.512285
0.397468
0.937954
0.594856
0.055069
0.694960
0.043876
0.636348
0.245933
0.382113
0.402131
0.937465
0.573764
0.808921
0.442014
0.968540
0.701139
0.746264
0.338837
0.256469
0.058276
0.139620
0.339956
0.538921
0.500537
0.107227
0.650489
0.782750
0.739235
0.959145
0.687044
0.017537
0.387559
0.241816
0.173516
0.356896
0.559304
0.913497
0.703681
0.918354
0.669722
0.078206
0.496498
0.768486
0.406332
0.681378
0.059121
0.787820
0.557611
0.587362
0.874005
0.213440
0.001496
0.983732
0.810587
0.639992
0.058517
0.079494
0.553878
0.648266
0.881843
0.970527
0.964282
0.888865
0.328919
0.129298
0.606851
0.572606
0.396089
0.899592
0.948734
0.142206
0.948323
0.086819
0.242250
0.174357
0.123324
0.378005
0.541916
0.026611
0.233866
0.639915
0.182560
0.282541
0.188314
0.571784
0.832912
0.495725
0.175924
0.329028
0.444972
0.602742
0.281667
0.616374
0.032723
0.774582
0.460717
0.756699
0.229757
0.738737
0.368086
0.071144
0.351417
0.882991
0.993420
0.826638
0.716955
0.006115
0.704945
0.976632
0.020158
0.478424
0.735344
0.970718
0.574414
0.075563
0.203386
0.495641
0.973494
0.047755
0.325108
0.621460
0.925488
0.041937
0.120086
0.708064
0.881025
0.940036
0.559846
0.615448
0.095995
0.002017
0.220029
0.943156
0.970026
0.657189
0.423148
0.858152
0.099909
0.702431
0.411173
0.258515
0.134678
0.715494
0.784025
0.105641
0.540421
0.543327
0.369196
0.297572
0.501548
0.594117
0.192947
0.595426
0.563149
0.841496
0.429521
0.648455
0.560535
0.028052
0.864735
0.019856
0.604270
0.904489
0.467788
0.776353
0.729395
0.448073
0.797913
0.453553
0.004086
0.833728
0.334639
0.368449
0.443595
0.396396
0.315691
0.856040
0.089159
0.286122
0.748909
0.864509
0.768161
0.192694
0.346131
0.942188
0.395710
0.397673
0.626924
0.765279
0.972695
0.090216
0.355193
0.189639
0.751826
0.308916
0.831476
0.527642
0.350986
0.445174
0.516773
0.862921
0.064114
0.286015
0.977170
0.211858
0.665073
0.630984
0.767986
0.095765
0.669539
0.220586
0.543165
0.111935
0.354557
0.575822
0.349471
0.254946
0.909942
0.957428
0.227841
0.590566
0.038630
0.524101
0.642957
0.014956
0.730456
0.869711
0.328956
0.127755
0.771101
0.511895
0.021708
0.570587
0.327777
0.289238
0.721133
0.418497
0.300132
0.007203
0.311555
0.471284
0.097121
0.974408
0.057946
0.939123
0.937237
0.636010
0.555377
        </DataArray>
        <DataArray type="Float32" Name="attr1" NumberOfComponents="3" format="ascii">
0.974855 0.182712 0.353524 
0.424160 0.110110 0.579035 
0.190246 0.061420 0.373246 
0.611396 0.804149 0.787833 
0.258392 0.088265 0.516999 
0.932864 0.796400 0.761720 
0.202463 0.933742 0.233223 
0.647372 0.937100 0.327533 
0.380907 0.744841 0.394940 
0.563410 0.296064 0.081189 
0.785804 0.971876 0.465784 
0.546090 0.512313 0.060887 
0.414785 0.304175 0.983048 
0.636676 0.406505 0.310794 
0.665552 0.740291 0.689837 
0.826659 0.178459 0.931445 
0.730651 0.339351 0.487801 
0.812279 0.343814 0.056097 
0.865080 0.309431 0.728432 
0.540727 0.387222 0.788814 
0.969133 0.295624 0.239997 
0.906036 0.631122 0.057216 
0.589475 0.196202 0.486468 
0.113449 0.009212 0.401778 
0.055461 0.699285 0.951597 
0.323826 0.939609 0.882476 
0.759131 0.416966 0.694541 
0.278800 0.264022 0.517509 
0.951852 0.220863 0.792527 
0.660425 0.035142 0.765143 
0.620892 0.917063 0.299671 
0.633199 0.285234 0.231222 
0.468825 0.611679 0.848871 
0.685626 0.437300 0.513253 
0.786486 0.871355 0.760744 
0.035314 0.783950 0.175260 
0.267478 0.342230 0.580082 
0.230425 0.492935 0.160317 
0.921161 0.068945 0.201576 
0.501517 0.194002 0.587394 
0.467794 0.305777 0.495884 
0.583414 0.249436 0.652367 
0.947601 0.872980 0.625842 
0.074566 0.281616 0.156323 
0.722019 0.197292 0.951730 
0.628880 0.311676 0.888460 
0.483631 0.606450 0.062151 
0.700950 0.906899 0.806163 
0.509964 0.038603 0.288107 
0.157430 0.737118 0.704073 
0.634902 0.821160 0.391876 
0.003890 0.435230 0.870532 
0.364716 0.036222 0.028219 
0.523801 0.222180 0.245130 
0.505365 0.300678 0.293855 
0.166380 0.524246 0.062171 
0.607089 0.640346 0.185159 
0.811748 0.278636 0.416859 
0.273147 0.041583 0.850085 
0.664299 0.850463 0.766277 
0.798687 0.728934 0.002118 
0.433484 0.637834 0.328726 
0.088473 0.885200 0.414898 
0.296346 0.321069 0.988769 
0.232446 0.337396 0.632253 
0.655486 0.802277 0.100490 
0.075379 0.462334 0.657391 
0.552515 0.937434 0.778212 
0.259311 0.348355 0.567217 
0.684262 0.140062 0.153986 
0.664215 0.321142 0.437074 
0.420876 0.664465 0.087848 
0.834319 0.735321 0.749929 
0.896771 0.459715 0.679681 
0.197650 0.126174 0.327835 
0.710454 0.838622 0.649526 
0.427176 0.933363 0.551387 
0.574371 0.424318 0.519411 
0.361684 0.272015 0.035163 
0.914091 0.750783 0.790335 
0.984060 0.345891 0.813044 
0.052482 0.053722 0.389588 
0.082599 0.348745 0.646424 
0.409982 0.586694 0.015411 
0.182073 0.283344 0.316668 
0.981454 0.006706 0.947374 
0.259590 0.208006 0.321186 
0.931300 0.267653 0.978082 
0.682423 0.615691 0.222843 
0.340862 0.373269 0.847004 
0.435999 0.884016 0.894422 
0.339180 0.953451 0.799153 
0.196631 0.931709 0.336209 
0.916934 0.581745 0.695152 
0.136537 0.420263 0.937414 
0.900172 0.991518 0.691928 
0.360226 0.499134 0.010015 
0.642481 0.053374 0.119006 
0.812589 0.852934 0.597683 
0.356375 0.927603 0.941513 
0.118846 0.284581 0.498548 
0.465571 0.182496 0.419099 
0.022536 0.216983 0.243639 
0.748966 0.283258 0.475152 
0.608974 0.622314 0.739247 
0.623307 0.045112 0.563700 
0.636431 0.545619 0.636195 
0.538857 0.092245 0.458816 
0.775629 0.996347 0.113348 
0.198996 0.096923 0.831425 
0.467768 0.694374 0.960596 
0.487926 0.001341 0.902940 
0.799845 0.553262 0.069753 
0.712037 0.530658 0.158157 
0.878387 0.472525 0.018790 
0.235864 0.544684 0.440579 
0.940469 0.704494 0.507606 
0.094193 0.144959 0.046417 
0.967157 0.801992 0.569089 
0.024050 0.322227 0.611785 
0.292525 0.560025 0.087836 
0.216231 0.413998 0.506112 
0.319363 0.084357 0.354575 
0.688523 0.542344 0.527243 
0.002121 0.543713 0.959158 
0.467417 0.342127 0.836699 
0.851858 0.811869 0.944677 
0.629267 0.703697 0.958160 
0.371200 0.759352 0.781539 
0.277177 0.615293 0.114600 
0.904938 0.695272 0.370602 
0.057916 0.725569 0.105722 
0.031935 0.459218 0.995347 
0.601200 0.788756 0.031770 
0.672655 0.673094 0.764993 
0.335442 0.583163 0.631399 
0.999564 0.972554 0.913985 
0.558700 0.729931 0.062086 
0.435946 0.549780 0.645716 
0.362743 0.403041 0.201784 
0.147910 0.591999 0.578013 
0.736613 0.373107 0.164519 
0.563700 0.676302 0.427174 
0.376949 0.876587 0.368549 
0.187104 0.404920 0.066951 
0.219335 0.268006 0.909810 
0.674851 0.758341 0.662445 
0.544429 0.002246 0.261469 
0.280467 0.071991 0.826468 
0.093412 0.941462 0.879504 
0.873736 0.629901 0.339490 
0.707538 0.525924 0.803564 
0.055409 0.214112 0.594676 
0.117751 0.958344 0.107447 
0.047842 0.418597 0.862125 
0.632631 0.722967 0.733534 
0.558433 0.344833 0.366083 
0.307090 0.091221 0.450498 
0.291013 0.179620 0.972249 
0.936809 0.474510 0.899907 
0.226122 0.441481 0.120103 
0.712815 0.134851 0.798704 
0.589438 0.839285 0.604777 
0.124083 0.637404 0.953506 
0.277633 0.226506 0.810398 
0.956562 0.316070 0.550884 
0.344262 0.035843 0.514458 
0.554306 0.820681 0.222277 
0.069751 0.427959 0.744415 
0.894048 0.342507 0.477295 
0.941378 0.750693 0.520998 
0.012043 0.610027 0.068239 
0.752392 0.479354 0.229565 
0.964143 0.108316 0.304055 
0.625999 0.622865 0.944977 
0.171931 0.229501 0.035890 
0.889823 0.854941 0.568945 
0.096816 0.432847 0.125681 
0.500931 0.583018 0.782044 
0.019721 0.294496 0.335398 
0.870327 0.132181 0.098780 
0.370678 0.856673 0.704303 
0.058839 0.838349 0.993585 
0.915902 0.367099 0.874785 
0.872603 0.666479 0.097305 
0.737500 0.075544 0.498425 
0.154428 0.777809 0.661600 
0.155942 0.579055 0.943966 
0.790159 0.251363 0.678783 
0.153342 0.985911 0.591133 
0.302553 0.135238 0.299727 
0.890511 0.961857 0.807948 
0.704111 0.659912 0.055147 
0.349565 0.283618 0.002034 
0.500002 0.039948 0.313639 
0.693019 0.254927 0.482550 
0.108570 0.530112 0.853934 
0.442600 0.204975 0.076529 
0.214217 0.785323 0.753801 
0.465030 0.624375 0.674153 
0.021353 0.610375 0.976363 
0.049788 0.030341 0.880502 
0.457969 0.103467 0.484628 
0.418492 0.482578 0.955606 
0.186381 0.318345 0.977538 
0.740119 0.700947 0.003265 
0.791857 0.627635 0.049912 
0.608206 0.255582 0.808343 
0.017121 0.299320 0.988605 
0.709626 0.966529 0.977899 
0.874348 0.517521 0.765960 
0.793746 0.768817 0.370557 
0.156999 0.145245 0.885979 
0.981351 0.149577 0.597012 
0.644693 0.364891 0.660675 
0.182905 0.610254 0.340409 
0.312394 0.404122 0.072481 
0.027743 0.466797 0.152530 
0.829974 0.438775 0.903654 
0.446537 0.325474 0.158925 
0.531300 0.962620 0.919793 
0.183957 0.392644 0.068681 
0.885522 0.340871 0.406931 
0.319614 0.699525 0.042820 
0.397550 0.311165 0.943747 
0.901608 0.927040 0.371431 
0.660715 0.813783 0.218629 
0.058091 0.685765 0.053998 
0.665495 0.487526 0.439877 
0.730593 0.395358 0.573596 
0.894958 0.776556 0.523343 
0.614543 0.152785 0.624663 
0.237547 0.309139 0.520642 
0.568135 0.558695 0.560498 
0.025289 0.713282 0.645760 
0.052840 0.010974 0.792477 
0.180695 0.166925 0.643477 
0.833751 0.824702 0.284583 
0.061998 0.265549 0.917373 
0.376707 0.161707 0.375065 
0.546277 0.948538 0.640875 
0.892392 0.683896 0.199377 
0.966658 0.653682 0.742341 
0.506312 0.942161 0.757836 
0.185423 0.829064 0.374442 
0.344663 0.085291 0.602616 
0.427489 0.264496 0.946587 
0.521112 0.712090 0.590326 
0.388234 0.624212 0.528491 
0.494157 0.000688 0.766687 
0.366250 0.452484 0.472685 
0.989041 0.174815 0.576522 
0.314727 0.323701 0.948497 
0.679502 0.819207 0.406316 
0.292870 0.086846 0.219792 
0.348788 0.311215 0.410969 
0.228235 0.653783 0.922357 
0.874086 0.719061 0.699779 
0.501257 0.107291 0.314768 
0.540215 0.101547 0.565795 
0.850267 0.634715 0.556397 
0.858346 0.181531 0.903081 
0.336151 0.306898 0.351409 
0.013946 0.513432 0.199538 
0.280193 0.111119 0.757228 
0.638620 0.760530 0.275602 
0.418616 0.319990 0.788064 
0.705753 0.947432 0.686777 
0.222696 0.035244 0.718299 
0.142147 0.561744 0.760260 
0.719214 0.253722 0.108064 
0.696040 0.087524 0.875843 
0.732354 0.300091 0.038074 
0.538577 0.365024 0.278859 
0.798615 0.928134 0.809949 
0.341469 0.572624 0.623292 
0.938816 0.357885 0.214229 
0.826956 0.684406 0.055879 
0.038570 0.214664 0.254399 
0.016674 0.088928 0.827332 
0.832664 0.244314 0.268626 
0.808943 0.973038 0.359594 
0.003547 0.386281 0.664759 
0.704236 0.330563 0.687325 
0.731578 0.935611 0.377299 
0.796013 0.562812 0.914471 
0.692447 0.782825 0.898097 
0.292624 0.109490 0.585387 
0.289876 0.157635 0.888054 
0.069587 0.946199 0.991089 
0.093061 0.238213 0.256595 
0.340337 0.713707 0.068904 
0.289737 0.632531 0.154808 
0.688931 0.220038 0.284825 
0.280944 0.685039 0.679054 
0.004694 0.631357 0.243731 
0.069930 0.755220 0.708440 
0.073508 0.479526 0.439072 
0.469789 0.649155 0.703844 
0.532736 0.434650 0.448974 
        </DataArray>
        <DataArray type="Float32" Name="domain" format="ascii">
1.0
1.0
1.0
1.0
1.0
1.0
1.0
1.0
1.0
1.0
1.0
1.0
1.0
1.0
1.0
1.0
1.0
1.0
1.0
1.0
1.0
1.0
1.0
1.0
1.0
1.0
1.0
1.0
1.0
1.0
1.0
1.0
1.0
1.0
1.0
1.0
1.0
1.0
1.0
1.0
1.0
1.0
1.0
1.0
1.0
1.0
1.0
1.0
1.0
1.0
1.0
1.0
1.0
1.0
1.0
1.0
1.0
1.0
1.0
1.0
1.0
1.0
1.0
1.0
1.0
1.0
1.0
1.0
1.0
1.0
1.0
1.0
1.0
1.0
1.0
0.0
0.0
0.0
0.0
0.0
0.0
0.0
0.0
0.0
0.0
0.0
0.0
0.0
0.0
0.0
0.0
0.0
0.0
0.0
0.0
0.0
0.0
0.0
0.0
0.0
1.0
1.0
1.0
1.0
1.0
1.0
1.0
1.0
1.0
1.0
1.0
1.0
1.0
1.0
1.0
1.0
1.0
1.0
1.0
1.0
1.0
1.0
1.0
1.0
1.0
1.0
1.0
1.0
1.0
1.0
1.0
1.0
1.0
1.0
1.0
1.0
1.0
1.0
1.0
1.0
1.0
1.0
1.0
1.0
1.0
1.0
1.0
1.0
1.0
1.0
1.0
1.0
1.0
1.0
1.0
1.0
1.0
1.0
1.0
1.0
1.0
1.0
1.0
1.0
1.0
1.0
1.0
1.0
1.0
1.0
1.0
1.0
1.0
1.0
1.0
1.0
1.0
1.0
1.0
1.0
1.0
1.0
1.0
1.0
1.0
1.0
1.0
1.0
0.0
0.0
0.0
0.0
0.0
0.0
0.0
0.0
0.0
0.0
0.0
0.0
1.0
1.0
1.0
1.0
1.0
1.0
1.0
1.0
1.0
1.0
1.0
1.0
1.0
1.0
1.0
1.0
1.0
1.0
1.0
1.0
1.0
1.0
1.0
1.0
1.0
1.0
1.0
1.0
1.0
1.0
1.0
1.0
1.0
1.0
1.0
1.0
1.0
1.0
1.0
1.0
1.0
1.0
1.0
1.0
1.0
1.0
1.0
1.0
1.0
1.0
1.0
1.0
1.0
1.0
1.0
1.0
1.0
1.0
1.0
1.0
1.0
1.0
1.0
1.0
1.0
1.0
1.0
1.0
1.0
1.0
1.0
1.0
1.0
1.0
1.0
1.0
1.0
1.0
1.0
1.0
1.0
1.0
1.0
1.0
1.0
1.0
1.0
1.0
1.0
1.0
0.0
0.0
0.0
0.0
0.0
0.0
0.0
0.0
0.0
0.0
        </DataArray>
      </PointData>
    </Piece>
  </PolyData>
</VTKFile>