<VTKFile type="PolyData" version="1.0" byte_order="LittleEndian" header_type="UInt64">
  <PolyData>
    <Piece NumberOfPoints="100" NumberOfVerts="100">
      <Points>
        <DataArray type="Float64" Name="Points" NumberOfComponents="3" format="ascii">
0.1911204835906995 0.542772234863242 0.9391084311347881
0.9487545881659004 0.1334825662740122 0.8529708579401621
0.1188459509895901 0.2845806263924667 0.4985478715977874
0.9494255115513571 0.6571555739933832 0.6820341128939604
0.9508765056026743 0.8424444010749252 0.1426422709400569
0.4241600935700535 0.1101104546756901 0.5790348923397088
0.5015477649860327 0.04978780073589282 0.03034110226186872
0.2638248311058503 0.2284457291343968 0.5130972196287023
0.9648814452975609 0.1435169418605431 0.766729206421073
0.2134401839163899 0.02253608148426931 0.216982922881384
0.4846284368612671 0.3764420624932078 0.7396733922699125
0.434735135904171 0.7723949715623656 0.9682584144322861
0.6559721579980234 0.6113956446706338 0.8041492149680158
0.4751518510863409 0.1929470751467407 0.4184919060587455
0.4017422504714959 0.4756998883207795 0.7514191254733973
0.9741391055406354 0.2777696471764847 0.4677990710047078
0.516999454695266 0.9837323594914132 0.608973632515886
0.3183446755547334 0.9775376964930735 0.6614359288190325
0.2615225984428438 0.05012694930186171 0.9252209889585055
0.5591805320888849 0.6160347680020916 0.9328642718340903
0.04511229016580046 0.5636999574193265 0.5631490531083434
0.01565379462407259 0.6531890539204753 0.103735458057497
0.4642941765653462 0.2718791541308727 0.7043084240498447
0.9337424079730443 0.2332228584060339 0.6399922230560369
0.7918573476877728 0.6276354505086152 0.04991205616392565
0.7502107521285253 0.3131366773447317 0.19084589686671
0.2824176602147437 0.9048914376623503 0.9933322411992903
0.5388570006290185 0.09224505788076433 0.4588159357855022
0.8111961605906505 0.6670802011307887 0.03299479394546021
0.1746193030035965 0.0841612028497452 0.7565402906590419
0.380907387528146 0.7448411319661694 0.3949404352368133
0.648454847443637 0.01712131452880739 0.2993196659724602
0.04217496675337899 0.6702125993695983 0.9325986239441677
0.6025758117425368 0.4584851763404509 0.2484190220719115
0.5538781934632555 0.1989962173630501 0.09692258569555237
0.9778993211323864 0.5282861618193396 0.7585052627797679
0.5747754901765029 0.691994518185037 0.6240177463628269
0.0190601420965697 0.7858039302351866 0.9718763048425892
0.9605958913636413 0.02805235491690582 0.8743481741406265
0.4471376599058799 0.03444629486908843 0.3363611228594737
0.4855563920058513 0.3467532688068444 0.2504588874287629
0.06088726592208852 0.8818434477402626 0.487926242180203
0.7688173331465491 0.3705569287433489 0.2221353998304645
0.7405553773322351 0.06481964953019299 0.7080947900153255
0.8248419257230861 0.6032289810929312 0.4147853982100331
0.5532623224178039 0.069752895240787 0.0198561607301905
0.62566228042093 0.4756770301723494 0.6153318194601071
0.7208923044517207 0.8346923942050466 0.1753956968079341
0.4065047456386943 0.3107938767360552 0.9642820872998414
0.9813515127257669 0.149576726067077 0.5970122266574706
0.3234378533328707 0.1816097199071153 0.9438311790843349
0.1749422833440163 0.1213149930716888 0.7111624725111003
0.8783871629841685 0.4725254636851486 0.0187902778765232
0.4984406968585957 0.02645017368418622 0.3047248598631822
0.5659525538487581 0.5163792266899817 0.5717634367422371
0.8266589993952499 0.1784595024406633 0.9314455003796864
0.4677879728992526 0.182904799150813 0.6102538466871466
0.3493071788226687 0.09579277662756258 0.009829631769177675
0.06205594210789728 0.8267202231442927 0.4057803021716977
0.1292980471023833 0.9404694445242782 0.704494049211734
0.07248080052785538 0.5306594567230626 0.5113654972466801
0.2669917034138964 0.5267642771234902 0.7767509604912479
0.107293812740923 0.812279267091174 0.3438141465448709
0.04641719043887351 0.7293949354303093 0.02774338283215492
0.9206470803261515 0.302787051162316 0.3680017998591057
0.5301836635776872 0.2944425315156381 0.7779592353487577
0.7284318202974127 0.5726061006669858 0.9671572714731296
0.4387750514136743 0.9036539609526965 0.5150925589189433
0.1984811508103827 0.58458962613503 0.7387164131557958
0.06920237975697853 0.3170582590079595 0.540727075170387
0.3222270524957092 0.6117852739469217 0.7979130857633832
0.7328473309833337 0.7341872287289299 0.7744654341254079
0.4964468728301829 0.3467352349093485 0.4469504580148727
0.2956241772996149 0.239996703928338 0.899591979617443
0.5312996827851517 0.9626195638148954 0.9197927785945158
0.1936272575083993 0.04736226888030662 0.3476663842575315
0.03063651498843147 0.6804258969237907 0.206325862460618
0.2162310722208437 0.4139981794105851 0.5061119177815915
0.1279096460771236 0.6331329359053015 0.1726812214252161
0.03988405711022948 0.8664112489826925 0.7867656302234318
0.5894753410995587 0.1962015907297835 0.4864680392265003
0.8337276639259757 0.8855224059030775 0.3408712603427138
0.3151690930523122 0.8929782123803263 0.1475944068992537
0.6346838832205702 0.08787252377352094 0.1771221099527915
0.9483228959383802 0.6885231152695962 0.5423441249680034
0.04282043429891558 0.9772254175146924 0.4217935090783083
0.8795632899834014 0.4547318758188133 0.3043951029868819
0.34115584947115 0.05546112169722974 0.699284599768331
0.9591583186019406 0.3684492295754844 0.3975495566159722
0.3693085776784883 0.95955262637718 0.1737343588966251
0.6930600427123438 0.7623843747366292 0.3009969884059406
0.8824759452219699 0.2422499767307891 0.4674174208345742
0.9270398081620038 0.3714305339979797 0.9261723494035321
0.5638048846443161 0.3253738999714265 0.3944915701195171
0.2027093844009985 0.467846069499922 0.759130632151323
0.8118686413802818 0.9446768618912078 0.3963957473652457
0.6122759172635731 0.9233602513916044 0.3226791018048865
0.6749615116627135 0.08558142716736467 0.08389654146325935
0.2640223087444797 0.5175087822054006 0.1233243711184131
0.058091392946387 0.6857649694728828 0.05399829239863982
        </DataArray>
      </Points>
      <Verts>
        <DataArray type="Int64" Name="connectivity" format="ascii">
0
1
2
3
4
5
6
7
8
9
10
11
12
13
14
15
16
17
18
19
20
21
22
23
24
25
26
27
28
29
30
31
32
33
34
35
36
37
38
39
40
41
42
43
44
45
46
47
48
49
50
51
52
53
54
55
56
57
58
59
60
61
62
63
64
65
66
67
68
69
70
71
72
73
74
75
76
77
78
79
80
81
82
83
84
85
86
87
88
89
90
91
92
93
94
95
96
97
98
99
        </DataArray>
                <DataArray type="Int64" Name="offsets" format="ascii">
1
2
3
4
5
6
7
8
9
10
11
12
13
14
15
16
17
18
19
20
21
22
23
24
25
26
27
28
29
30
31
32
33
34
35
36
37
38
39
40
41
42
43
44
45
46
47
48
49
50
51
52
53
54
55
56
57
58
59
60
61
62
63
64
65
66
67
68
69
70
71
72
73
74
75
76
77
78
79
80
81
82
83
84
85
86
87
88
89
90
91
92
93
94
95
96
97
98
99
100
        </DataArray>
      </Verts>
      <PointData>
        <DataArray type="Float32" Name="scalar" format="ascii">
0.7380653
0.9748546
0.2975725
0.02518314
0.7643975
0.8740048
0.8805022
0.4389048
0.3744993
0.2436388
0.03901848
0.1732561
0.787833
0.4825779
0.5225036
0.2073478
0.6223137
0.4138168
0.7785255
0.7964005
0.7401186
0.5737079
0.01387276
0.6364312
0.3425626
0.9988492
0.6473725
0.4295211
0.2624457
0.7386184
0.07949429
0.9886052
0.2129485
0.1183546
0.8314249
0.1713345
0.1930341
0.4657843
0.517521
0.2054123
0.6110951
0.001340698
0.7471956
0.2307277
0.3041754
0.1569995
0.7645034
0.5317364
0.7120366
0.877432
0.2872201
0.6655521
0.9044887
0.6745987
0.7498594
0.3289186
0.3404088
0.8011235
0.9216934
0.5076056
0.7365903
0.5641357
0.05609748
0.4667966
0.4141732
0.09641074
0.8019916
0.6241942
0.04796845
0.3872222
0.4465366
0.3631405
0.5434729
0.2925248
0.6808926
0.4539952
0.9060355
0.004086397
0.2966204
0.4175316
0.1422059
0.4069305
0.5895199
0.447751
0.5272425
0.706947
0.1126621
0.9515968
0.3111648
0.1312392
0.2516242
0.3421274
0.1825391
0.7721381
0.4169663
0.6607151
0.2419904
0.4080551
0.6292673
0.3219828
        </DataArray>
        <DataArray type="Float32" Name="vector" NumberOfComponents="3" format="ascii">
0.5990317 0.02347561 0.3951705
0.182712 0.3535236 0.5873617
0.02135292 0.6103745 0.9763628
0.9335228 0.7101471 0.6822569
0.1723424 0.5220416 0.298533
0.4655708 0.1824962 0.4190991
0.2772013 0.250088 0.6072338
0.9764787 0.9255797 0.3279163
0.1902463 0.0614199 0.3732455
0.5941165 0.4579693 0.1034673
0.1146077 0.700754 0.4361788
0.42899 0.7911557 0.0911006
0.001495549 0.7489657 0.283258
0.9556063 0.5025018 0.1946696
0.196855 0.2415158 0.1236921
0.8652724 0.2583924 0.08826474
0.7392471 0.5954264 0.1863809
0.2947665 0.6814652 0.666369
0.9677892 0.5631894 0.486807
0.7617198 0.8105871 0.6233074
0.7009468 0.003264953 0.8053668
0.7683834 0.02258709 0.4571891
0.5162559 0.08231235 0.2024633
0.5456192 0.6361949 0.8414957
0.009091083 0.6885247 0.3157951
0.6171004 0.4601619 0.2703731
0.9371002 0.3275327 0.05851735
0.6082056 0.2555821 0.8083426
0.5077175 0.2733603 0.2641723
0.2197255 0.1339068 0.2320302
0.7756289 0.9963474 0.113348
0.8657068 0.4348891 0.1796944
0.3761124 0.06364942 0.7744325
0.5634099 0.2960636 0.0811892
0.5605351 0.7096261 0.9665291
0.6467452 0.5860363 0.006718087
0.8888776 0.639761 0.562542
0.6482655 0.467768 0.6943737
0.7659602 0.2142366 0.9645078
0.4404316 0.7968533 0.4025637
0.9418144 0.5460901 0.5123132
0.90294 0.8647353 0.7937461
0.8639637 0.9788803 0.5538249
0.07248071 0.5658061 0.4706749
0.9830479 0.9705274 0.7998453
0.1452445 0.8859792 0.6805948
0.4689904 0.8781258 0.4578618
0.5520824 0.354637 0.6366761
0.530658 0.1581565 0.6042695
0.09299212 0.950583 0.6722253
0.3226375 0.6785556 0.7117471
0.7402906 0.689837 0.8888651
0.6446931 0.3648909 0.6606749
0.3299919 0.04307922 0.6885765
0.4013279 0.137207 0.4039625
0.2358644 0.5446841 0.4405788
0.9601666 0.6686615 0.1980327
0.8658391 0.6530218 0.3252512
0.7306508 0.3393511 0.4878008
0.7763534 0.3123941 0.4041222
0.331228 0.3493605 0.2123068
0.2452836 0.5909495 0.8161697
0.6068508 0.09419347 0.144959
0.1525297 0.3657426 0.2149011
0.8909742 0.2703019 0.7552752
0.2456609 0.8650802 0.3094309
0.5690894 0.4480733 0.8299741
0.1932477 0.9030499 0.4710369
0.3178722 0.4252766 0.0141347
0.7888145 0.3960887 0.02404979
0.325474 0.1589254 0.8040309
0.9717881 0.56757 0.6420289
0.460925 0.9577457 0.9691333
0.5600246 0.08783633 0.4535534
0.122126 0.6360639 0.9787771
0.9500107 0.9914594 0.8982705
0.6311221 0.05721635 0.9487336
0.1839568 0.3926444 0.06868142
0.07882256 0.8241018 0.3033241
0.05246073 0.1561136 0.6536888
0.3193631 0.08435674 0.354575
0.7173896 0.1376588 0.4041771
0.8680261 0.2830056 0.1022792
0.1134491 0.009212147 0.4017782
0.3346388 0.3196138 0.6995248
0.8248349 0.7687701 0.02155638
0.7309955 0.6262591 0.9880216
0.08681852 0.002121294 0.5437131
0.9437472 0.2721777 0.7771147
0.1797407 0.07638069 0.691466
0.8043212 0.3238258 0.9396088
0.8366987 0.4435953 0.9016082
0.9074928 0.2645595 0.3927977
0.5846261 0.3812043 0.5862598
0.6945408 0.1743567 0.8518582
0.8137829 0.2186289 0.580568
0.1208917 0.9936497 0.2615958
0.09439572 0.5357695 0.2788
0.703697 0.9581603 0.3156907
0.2391254 0.9066873 0.8127451
        </DataArray>
        <DataArray type="Float32" Name="domain" format="ascii">
1.0
1.0
1.0
1.0
1.0
1.0
1.0
1.0
1.0
1.0
1.0
1.0
1.0
1.0
1.0
1.0
1.0
1.0
1.0
1.0
1.0
1.0
1.0
1.0
1.0
1.0
1.0
1.0
1.0
1.0
1.0
1.0
1.0
1.0
1.0
1.0
1.0
1.0
1.0
1.0
1.0
1.0
1.0
1.0
1.0
1.0
1.0
1.0
1.0
1.0
1.0
1.0
1.0
1.0
1.0
1.0
1.0
1.0
1.0
1.0
1.0
1.0
1.0
1.0
1.0
1.0
1.0
1.0
1.0
1.0
1.0
1.0
1.0
1.0
1.0
0.0
0.0
0.0
0.0
0.0
0.0
0.0
0.0
0.0
0.0
0.0
0.0
0.0
0.0
0.0
0.0
0.0
0.0
0.0
0.0
0.0
0.0
0.0
0.0
0.0
        </DataArray>
      </PointData>
    </Piece>
  </PolyData>
</VTKFile>