# vtk DataFile Version 3.0
points
ASCII
DATASET POLYDATA
POINTS 100 double
0.19112 0.542772 0.939108
0.948755 0.133483 0.852971
0.118846 0.284581 0.498548
0.949426 0.657156 0.682034
0.950877 0.842444 0.142642
0.42416 0.11011 0.579035
0.501548 0.0497878 0.0303411
0.263825 0.228446 0.513097
0.964881 0.143517 0.766729
0.21344 0.0225361 0.216983
0.484628 0.376442 0.739673
0.434735 0.772395 0.968258
0.655972 0.611396 0.804149
0.475152 0.192947 0.418492
0.401742 0.4757 0.751419
0.974139 0.27777 0.467799
0.516999 0.983732 0.608974
0.318345 0.977538 0.661436
0.261523 0.0501269 0.925221
0.559181 0.616035 0.932864
0.0451123 0.5637 0.563149
0.0156538 0.653189 0.103735
0.464294 0.271879 0.704308
0.933742 0.233223 0.639992
0.791857 0.627635 0.0499121
0.750211 0.313137 0.190846
0.282418 0.904891 0.993332
0.538857 0.0922451 0.458816
0.811196 0.66708 0.0329948
0.174619 0.0841612 0.75654
0.380907 0.744841 0.39494
0.648455 0.0171213 0.29932
0.042175 0.670213 0.932599
0.602576 0.458485 0.248419
0.553878 0.198996 0.0969226
0.977899 0.528286 0.758505
0.574775 0.691995 0.624018
0.0190601 0.785804 0.971876
0.960596 0.0280524 0.874348
0.447138 0.0344463 0.336361
0.485556 0.346753 0.250459
0.0608873 0.881843 0.487926
0.768817 0.370557 0.222135
0.740555 0.0648196 0.708095
0.824842 0.603229 0.414785
0.553262 0.0697529 0.0198562
0.625662 0.475677 0.615332
0.720892 0.834692 0.175396
0.406505 0.310794 0.964282
0.981352 0.149577 0.597012
0.323438 0.18161 0.943831
0.174942 0.121315 0.711162
0.878387 0.472525 0.0187903
0.498441 0.0264502 0.304725
0.565953 0.516379 0.571763
0.826659 0.17846 0.931446
0.467788 0.182905 0.610254
0.349307 0.0957928 0.00982963
0.0620559 0.82672 0.40578
0.129298 0.940469 0.704494
0.0724808 0.530659 0.511365
0.266992 0.526764 0.776751
0.107294 0.812279 0.343814
0.0464172 0.729395 0.0277434
0.920647 0.302787 0.368002
0.530184 0.294443 0.777959
0.728432 0.572606 0.967157
0.438775 0.903654 0.515093
0.198481 0.58459 0.738716
0.0692024 0.317058 0.540727
0.322227 0.611785 0.797913
0.732847 0.734187 0.774465
0.496447 0.346735 0.44695
0.295624 0.239997 0.899592
0.5313 0.96262 0.919793
0.193627 0.0473623 0.347666
0.0306365 0.680426 0.206326
0.216231 0.413998 0.506112
0.12791 0.633133 0.172681
0.0398841 0.866411 0.786766
0.589475 0.196202 0.486468
0.833728 0.885522 0.340871
0.315169 0.892978 0.147594
0.634684 0.0878725 0.177122
0.948323 0.688523 0.542344
0.0428204 0.977225 0.421794
0.879563 0.454732 0.304395
0.341156 0.0554611 0.699285
0.959158 0.368449 0.39755
0.369309 0.959553 0.173734
0.69306 0.762384 0.300997
0.882476 0.24225 0.467417
0.92704 0.371431 0.926172
0.563805 0.325374 0.394492
0.202709 0.467846 0.759131
0.811869 0.944677 0.396396
0.612276 0.92336 0.322679
0.674962 0.0855814 0.0838965
0.264022 0.517509 0.123324
0.0580914 0.685765 0.0539983
VERTICES 100 200
1 0
1 1
1 2
1 3
1 4
1 5
1 6
1 7
1 8
1 9
1 10
1 11
1 12
1 13
1 14
1 15
1 16
1 17
1 18
1 19
1 20
1 21
1 22
1 23
1 24
1 25
1 26
1 27
1 28
1 29
1 30
1 31
1 32
1 33
1 34
1 35
1 36
1 37
1 38
1 39
1 40
1 41
1 42
1 43
1 44
1 45
1 46
1 47
1 48
1 49
1 50
1 51
1 52
1 53
1 54
1 55
1 56
1 57
1 58
1 59
1 60
1 61
1 62
1 63
1 64
1 65
1 66
1 67
1 68
1 69
1 70
1 71
1 72
1 73
1 74
1 75
1 76
1 77
1 78
1 79
1 80
1 81
1 82
1 83
1 84
1 85
1 86
1 87
1 88
1 89
1 90
1 91
1 92
1 93
1 94
1 95
1 96
1 97
1 98
1 99
POINT_DATA 100
SCALARS scalar float
LOOKUP_TABLE default
0.7380653
0.9748546
0.2975725
0.02518314
0.7643975
0.8740048
0.8805022
0.4389048
0.3744993
0.2436388
0.03901848
0.1732561
0.787833
0.4825779
0.5225036
0.2073478
0.6223137
0.4138168
0.7785255
0.7964005
0.7401186
0.5737079
0.01387276
0.6364312
0.3425626
0.9988492
0.6473725
0.4295211
0.2624457
0.7386184
0.07949429
0.9886052
0.2129485
0.1183546
0.8314249
0.1713345
0.1930341
0.4657843
0.517521
0.2054123
0.6110951
0.001340698
0.7471956
0.2307277
0.3041754
0.1569995
0.7645034
0.5317364
0.7120366
0.877432
0.2872201
0.6655521
0.9044887
0.6745987
0.7498594
0.3289186
0.3404088
0.8011235
0.9216934
0.5076056
0.7365903
0.5641357
0.05609748
0.4667966
0.4141732
0.09641074
0.8019916
0.6241942
0.04796845
0.3872222
0.4465366
0.3631405
0.5434729
0.2925248
0.6808926
0.4539952
0.9060355
0.004086397
0.2966204
0.4175316
0.1422059
0.4069305
0.5895199
0.447751
0.5272425
0.706947
0.1126621
0.9515968
0.3111648
0.1312392
0.2516242
0.3421274
0.1825391
0.7721381
0.4169663
0.6607151
0.2419904
0.4080551
0.6292673
0.3219828
VECTORS vector float
0.5990317 0.02347561 0.3951705 
0.182712 0.3535236 0.5873617 
0.02135292 0.6103745 0.9763628 
0.9335228 0.7101471 0.6822569 
0.1723424 0.5220416 0.298533 
0.4655708 0.1824962 0.4190991 
0.2772013 0.250088 0.6072338 
0.9764787 0.9255797 0.3279163 
0.1902463 0.0614199 0.3732455 
0.5941165 0.4579693 0.1034673 
0.1146077 0.700754 0.4361788 
0.42899 0.7911557 0.0911006 
0.001495549 0.7489657 0.283258 
0.9556063 0.5025018 0.1946696 
0.196855 0.2415158 0.1236921 
0.8652724 0.2583924 0.08826474 
0.7392471 0.5954264 0.1863809 
0.2947665 0.6814652 0.666369 
0.9677892 0.5631894 0.486807 
0.7617198 0.8105871 0.6233074 
0.7009468 0.003264953 0.8053668 
0.7683834 0.02258709 0.4571891 
0.5162559 0.08231235 0.2024633 
0.5456192 0.6361949 0.8414957 
0.009091083 0.6885247 0.3157951 
0.6171004 0.4601619 0.2703731 
0.9371002 0.3275327 0.05851735 
0.6082056 0.2555821 0.8083426 
0.5077175 0.2733603 0.2641723 
0.2197255 0.1339068 0.2320302 
0.7756289 0.9963474 0.113348 
0.8657068 0.4348891 0.1796944 
0.3761124 0.06364942 0.7744325 
0.5634099 0.2960636 0.0811892 
0.5605351 0.7096261 0.9665291 
0.6467452 0.5860363 0.006718087 
0.8888776 0.639761 0.562542 
0.6482655 0.467768 0.6943737 
0.7659602 0.2142366 0.9645078 
0.4404316 0.7968533 0.4025637 
0.9418144 0.5460901 0.5123132 
0.90294 0.8647353 0.7937461 
0.8639637 0.9788803 0.5538249 
0.07248071 0.5658061 0.4706749 
0.9830479 0.9705274 0.7998453 
0.1452445 0.8859792 0.6805948 
0.4689904 0.8781258 0.4578618 
0.5520824 0.354637 0.6366761 
0.530658 0.1581565 0.6042695 
0.09299212 0.950583 0.6722253 
0.3226375 0.6785556 0.7117471 
0.7402906 0.689837 0.8888651 
0.6446931 0.3648909 0.6606749 
0.3299919 0.04307922 0.6885765 
0.4013279 0.137207 0.4039625 
0.2358644 0.5446841 0.4405788 
0.9601666 0.6686615 0.1980327 
0.8658391 0.6530218 0.3252512 
0.7306508 0.3393511 0.4878008 
0.7763534 0.3123941 0.4041222 
0.331228 0.3493605 0.2123068 
0.2452836 0.5909495 0.8161697 
0.6068508 0.09419347 0.144959 
0.1525297 0.3657426 0.2149011 
0.8909742 0.2703019 0.7552752 
0.2456609 0.8650802 0.3094309 
0.5690894 0.4480733 0.8299741 
0.1932477 0.9030499 0.4710369 
0.3178722 0.4252766 0.0141347 
0.7888145 0.3960887 0.02404979 
0.325474 0.1589254 0.8040309 
0.9717881 0.56757 0.6420289 
0.460925 0.9577457 0.9691333 
0.5600246 0.08783633 0.4535534 
0.122126 0.6360639 0.9787771 
0.9500107 0.9914594 0.8982705 
0.6311221 0.05721635 0.9487336 
0.1839568 0.3926444 0.06868142 
0.07882256 0.8241018 0.3033241 
0.05246073 0.1561136 0.6536888 
0.3193631 0.08435674 0.354575 
0.7173896 0.1376588 0.4041771 
0.8680261 0.2830056 0.1022792 
0.1134491 0.009212147 0.4017782 
0.3346388 0.3196138 0.6995248 
0.8248349 0.7687701 0.02155638 
0.7309955 0.6262591 0.9880216 
0.08681852 0.002121294 0.5437131 
0.9437472 0.2721777 0.7771147 
0.1797407 0.07638069 0.691466 
0.8043212 0.3238258 0.9396088 
0.8366987 0.4435953 0.9016082 
0.9074928 0.2645595 0.3927977 
0.5846261 0.3812043 0.5862598 
0.6945408 0.1743567 0.8518582 
0.8137829 0.2186289 0.580568 
0.1208917 0.9936497 0.2615958 
0.09439572 0.5357695 0.2788 
0.703697 0.9581603 0.3156907 
0.2391254 0.9066873 0.8127451 
SCALARS domain float
LOOKUP_TABLE default
1.0
1.0
1.0
1.0
1.0
1.0
1.0
1.0
1.0
1.0
1.0
1.0
1.0
1.0
1.0
1.0
1.0
1.0
1.0
1.0
1.0
1.0
1.0
1.0
1.0
1.0
1.0
1.0
1.0
1.0
1.0
1.0
1.0
1.0
1.0
1.0
1.0
1.0
1.0
1.0
1.0
1.0
1.0
1.0
1.0
1.0
1.0
1.0
1.0
1.0
1.0
1.0
1.0
1.0
1.0
1.0
1.0
1.0
1.0
1.0
1.0
1.0
1.0
1.0
1.0
1.0
1.0
1.0
1.0
1.0
1.0
1.0
1.0
1.0
1.0
0.0
0.0
0.0
0.0
0.0
0.0
0.0
0.0
0.0
0.0
0.0
0.0
0.0
0.0
0.0
0.0
0.0
0.0
0.0
0.0
0.0
0.0
0.0
0.0
0.0
