# vtk DataFile Version 3.0
points
ASCII
DATASET POLYDATA
POINTS 100 double
0.191120.5427720.939108
0.9487550.1334830.852971
0.1188460.2845810.498548
0.9494260.6571560.682034
0.9508770.8424440.142642
0.424160.110110.579035
0.5015480.04978780.0303411
0.2638250.2284460.513097
0.9648810.1435170.766729
0.213440.02253610.216983
0.4846280.3764420.739673
0.4347350.7723950.968258
0.6559720.6113960.804149
0.4751520.1929470.418492
0.4017420.47570.751419
0.9741390.277770.467799
0.5169990.9837320.608974
0.3183450.9775380.661436
0.2615230.05012690.925221
0.5591810.6160350.932864
0.04511230.56370.563149
0.01565380.6531890.103735
0.4642940.2718790.704308
0.9337420.2332230.639992
0.7918570.6276350.0499121
0.7502110.3131370.190846
0.2824180.9048910.993332
0.5388570.09224510.458816
0.8111960.667080.0329948
0.1746190.08416120.75654
0.3809070.7448410.39494
0.6484550.01712130.29932
0.0421750.6702130.932599
0.6025760.4584850.248419
0.5538780.1989960.0969226
0.9778990.5282860.758505
0.5747750.6919950.624018
0.01906010.7858040.971876
0.9605960.02805240.874348
0.4471380.03444630.336361
0.4855560.3467530.250459
0.06088730.8818430.487926
0.7688170.3705570.222135
0.7405550.06481960.708095
0.8248420.6032290.414785
0.5532620.06975290.0198562
0.6256620.4756770.615332
0.7208920.8346920.175396
0.4065050.3107940.964282
0.9813520.1495770.597012
0.3234380.181610.943831
0.1749420.1213150.711162
0.8783870.4725250.0187903
0.4984410.02645020.304725
0.5659530.5163790.571763
0.8266590.178460.931446
0.4677880.1829050.610254
0.3493070.09579280.00982963
0.06205590.826720.40578
0.1292980.9404690.704494
0.07248080.5306590.511365
0.2669920.5267640.776751
0.1072940.8122790.343814
0.04641720.7293950.0277434
0.9206470.3027870.368002
0.5301840.2944430.777959
0.7284320.5726060.967157
0.4387750.9036540.515093
0.1984810.584590.738716
0.06920240.3170580.540727
0.3222270.6117850.797913
0.7328470.7341870.774465
0.4964470.3467350.44695
0.2956240.2399970.899592
0.53130.962620.919793
0.1936270.04736230.347666
0.03063650.6804260.206326
0.2162310.4139980.506112
0.127910.6331330.172681
0.03988410.8664110.786766
0.5894750.1962020.486468
0.8337280.8855220.340871
0.3151690.8929780.147594
0.6346840.08787250.177122
0.9483230.6885230.542344
0.04282040.9772250.421794
0.8795630.4547320.304395
0.3411560.05546110.699285
0.9591580.3684490.39755
0.3693090.9595530.173734
0.693060.7623840.300997
0.8824760.242250.467417
0.927040.3714310.926172
0.5638050.3253740.394492
0.2027090.4678460.759131
0.8118690.9446770.396396
0.6122760.923360.322679
0.6749620.08558140.0838965
0.2640220.5175090.123324
0.05809140.6857650.0539983
VERTICES 100 200
1 0
1 1
1 2
1 3
1 4
1 5
1 6
1 7
1 8
1 9
1 10
1 11
1 12
1 13
1 14
1 15
1 16
1 17
1 18
1 19
1 20
1 21
1 22
1 23
1 24
1 25
1 26
1 27
1 28
1 29
1 30
1 31
1 32
1 33
1 34
1 35
1 36
1 37
1 38
1 39
1 40
1 41
1 42
1 43
1 44
1 45
1 46
1 47
1 48
1 49
1 50
1 51
1 52
1 53
1 54
1 55
1 56
1 57
1 58
1 59
1 60
1 61
1 62
1 63
1 64
1 65
1 66
1 67
1 68
1 69
1 70
1 71
1 72
1 73
1 74
1 75
1 76
1 77
1 78
1 79
1 80
1 81
1 82
1 83
1 84
1 85
1 86
1 87
1 88
1 89
1 90
1 91
1 92
1 93
1 94
1 95
1 96
1 97
1 98
1 99
POINT_DATA 100
SCALARS scalar float
LOOKUP_TABLE default
0.7380653
0.9748546
0.2975725
0.02518314
0.7643975
0.8740048
0.8805022
0.4389048
0.3744993
0.2436388
0.03901848
0.1732561
0.787833
0.4825779
0.5225036
0.2073478
0.6223137
0.4138168
0.7785255
0.7964005
0.7401186
0.5737079
0.01387276
0.6364312
0.3425626
0.9988492
0.6473725
0.4295211
0.2624457
0.7386184
0.07949429
0.9886052
0.2129485
0.1183546
0.8314249
0.1713345
0.1930341
0.4657843
0.517521
0.2054123
0.6110951
0.001340698
0.7471956
0.2307277
0.3041754
0.1569995
0.7645034
0.5317364
0.7120366
0.877432
0.2872201
0.6655521
0.9044887
0.6745987
0.7498594
0.3289186
0.3404088
0.8011235
0.9216934
0.5076056
0.7365903
0.5641357
0.05609748
0.4667966
0.4141732
0.09641074
0.8019916
0.6241942
0.04796845
0.3872222
0.4465366
0.3631405
0.5434729
0.2925248
0.6808926
0.4539952
0.9060355
0.004086397
0.2966204
0.4175316
0.1422059
0.4069305
0.5895199
0.447751
0.5272425
0.706947
0.1126621
0.9515968
0.3111648
0.1312392
0.2516242
0.3421274
0.1825391
0.7721381
0.4169663
0.6607151
0.2419904
0.4080551
0.6292673
0.3219828
VECTORS vector float
0.5990317 0.02347561 0.3951705 
0.182712 0.3535236 0.5873617 
0.02135292 0.6103745 0.9763628 
0.9335228 0.7101471 0.6822569 
0.1723424 0.5220416 0.298533 
0.4655708 0.1824962 0.4190991 
0.2772013 0.250088 0.6072338 
0.9764787 0.9255797 0.3279163 
0.1902463 0.0614199 0.3732455 
0.5941165 0.4579693 0.1034673 
0.1146077 0.700754 0.4361788 
0.42899 0.7911557 0.0911006 
0.001495549 0.7489657 0.283258 
0.9556063 0.5025018 0.1946696 
0.196855 0.2415158 0.1236921 
0.8652724 0.2583924 0.08826474 
0.7392471 0.5954264 0.1863809 
0.2947665 0.6814652 0.666369 
0.9677892 0.5631894 0.486807 
0.7617198 0.8105871 0.6233074 
0.7009468 0.003264953 0.8053668 
0.7683834 0.02258709 0.4571891 
0.5162559 0.08231235 0.2024633 
0.5456192 0.6361949 0.8414957 
0.009091083 0.6885247 0.3157951 
0.6171004 0.4601619 0.2703731 
0.9371002 0.3275327 0.05851735 
0.6082056 0.2555821 0.8083426 
0.5077175 0.2733603 0.2641723 
0.2197255 0.1339068 0.2320302 
0.7756289 0.9963474 0.113348 
0.8657068 0.4348891 0.1796944 
0.3761124 0.06364942 0.7744325 
0.5634099 0.2960636 0.0811892 
0.5605351 0.7096261 0.9665291 
0.6467452 0.5860363 0.006718087 
0.8888776 0.639761 0.562542 
0.6482655 0.467768 0.6943737 
0.7659602 0.2142366 0.9645078 
0.4404316 0.7968533 0.4025637 
0.9418144 0.5460901 0.5123132 
0.90294 0.8647353 0.7937461 
0.8639637 0.9788803 0.5538249 
0.07248071 0.5658061 0.4706749 
0.9830479 0.9705274 0.7998453 
0.1452445 0.8859792 0.6805948 
0.4689904 0.8781258 0.4578618 
0.5520824 0.354637 0.6366761 
0.530658 0.1581565 0.6042695 
0.09299212 0.950583 0.6722253 
0.3226375 0.6785556 0.7117471 
0.7402906 0.689837 0.8888651 
0.6446931 0.3648909 0.6606749 
0.3299919 0.04307922 0.6885765 
0.4013279 0.137207 0.4039625 
0.2358644 0.5446841 0.4405788 
0.9601666 0.6686615 0.1980327 
0.8658391 0.6530218 0.3252512 
0.7306508 0.3393511 0.4878008 
0.7763534 0.3123941 0.4041222 
0.331228 0.3493605 0.2123068 
0.2452836 0.5909495 0.8161697 
0.6068508 0.09419347 0.144959 
0.1525297 0.3657426 0.2149011 
0.8909742 0.2703019 0.7552752 
0.2456609 0.8650802 0.3094309 
0.5690894 0.4480733 0.8299741 
0.1932477 0.9030499 0.4710369 
0.3178722 0.4252766 0.0141347 
0.7888145 0.3960887 0.02404979 
0.325474 0.1589254 0.8040309 
0.9717881 0.56757 0.6420289 
0.460925 0.9577457 0.9691333 
0.5600246 0.08783633 0.4535534 
0.122126 0.6360639 0.9787771 
0.9500107 0.9914594 0.8982705 
0.6311221 0.05721635 0.9487336 
0.1839568 0.3926444 0.06868142 
0.07882256 0.8241018 0.3033241 
0.05246073 0.1561136 0.6536888 
0.3193631 0.08435674 0.354575 
0.7173896 0.1376588 0.4041771 
0.8680261 0.2830056 0.1022792 
0.1134491 0.009212147 0.4017782 
0.3346388 0.3196138 0.6995248 
0.8248349 0.7687701 0.02155638 
0.7309955 0.6262591 0.9880216 
0.08681852 0.002121294 0.5437131 
0.9437472 0.2721777 0.7771147 
0.1797407 0.07638069 0.691466 
0.8043212 0.3238258 0.9396088 
0.8366987 0.4435953 0.9016082 
0.9074928 0.2645595 0.3927977 
0.5846261 0.3812043 0.5862598 
0.6945408 0.1743567 0.8518582 
0.8137829 0.2186289 0.580568 
0.1208917 0.9936497 0.2615958 
0.09439572 0.5357695 0.2788 
0.703697 0.9581603 0.3156907 
0.2391254 0.9066873 0.8127451 
SCALARS domain float
LOOKUP_TABLE default
1.0
1.0
1.0
1.0
1.0
1.0
1.0
1.0
1.0
1.0
1.0
1.0
1.0
1.0
1.0
1.0
1.0
1.0
1.0
1.0
1.0
1.0
1.0
1.0
1.0
1.0
1.0
1.0
1.0
1.0
1.0
1.0
1.0
1.0
1.0
1.0
1.0
1.0
1.0
1.0
1.0
1.0
1.0
1.0
1.0
1.0
1.0
1.0
1.0
1.0
1.0
1.0
1.0
1.0
1.0
1.0
1.0
1.0
1.0
1.0
1.0
1.0
1.0
1.0
1.0
1.0
1.0
1.0
1.0
1.0
1.0
1.0
1.0
1.0
1.0
0.0
0.0
0.0
0.0
0.0
0.0
0.0
0.0
0.0
0.0
0.0
0.0
0.0
0.0
0.0
0.0
0.0
0.0
0.0
0.0
0.0
0.0
0.0
0.0
0.0
