# vtk DataFile Version 3.0
points
ASCII
DATASET POLYDATA
POINTS 100 double
0.191120.5427720.939108
0.9335230.7101470.682257
0.2284460.5130970.438905
0.7007540.4361790.434735
0.7514190.5225040.196855
0.6663690.2615230.0501269
0.5737080.7683830.0225871
0.7502110.3131370.190846
0.5077180.273360.264172
0.6702130.9325990.212948
0.5860360.006718090.574775
0.3363610.2054120.440432
0.5538250.7405550.0648196
0.7645030.468990.878126
0.3234380.181610.943831
0.3299920.04307920.688576
0.09579280.009829630.801123
0.349360.2123070.266992
0.3680020.4141730.890974
0.4710370.1984810.58459
0.3631410.9717880.56757
0.1936270.04736230.347666
0.07882260.8241020.303324
0.8929780.1475940.58952
0.768770.02155640.879563
0.1737340.1312390.179741
0.3927980.5638050.325374
0.241990.1208920.99365
0.9501920.2977340.372967
0.618250.02073460.852418
0.5075410.6346850.435244
0.8578260.812930.263612
0.9059270.4261690.242918
0.5515510.8266870.394286
0.1074760.0180330.122876
0.0276580.315680.861391
0.8649260.04239010.66764
0.9370870.6868360.209923
0.9600320.2140030.456393
0.8382340.7050780.379994
0.7435140.6709460.671558
0.4344250.8796270.0322956
0.9548340.8772880.0612842
0.2399140.9797090.690876
0.3343370.2929610.194138
0.3979710.06462350.15931
0.6397430.5592170.628284
0.3193930.6984220.808751
0.5349810.6057940.215716
0.9324530.6335080.954549
0.8600460.1708770.901505
0.5813380.6969350.013719
0.2735130.03710030.8016
0.8572050.4675070.627542
0.7527210.9741190.427029
0.3711010.2450190.119228
0.733240.9111670.240259
0.6591840.9067270.920069
0.72320.826380.620956
0.665010.286470.644219
0.5509570.8313650.249487
0.1361090.8439370.995786
0.958540.4346250.812213
0.02576740.2974170.212592
0.9569650.06043220.382506
0.647490.4259350.0836791
0.4922440.6948580.91729
0.5955470.1017460.165874
0.715210.5528920.556047
0.7271790.1902030.479701
0.4528990.1919890.800239
0.1897750.5758040.255534
0.7871410.4268640.467209
0.6742160.6301240.24019
0.9210280.3447580.550895
0.05157140.2054240.679874
0.4509430.3975330.256193
0.5203490.2294490.85427
0.4447680.4510410.50927
0.03306420.3740760.800554
0.5241980.393980.552048
0.7430370.6324950.584216
0.264430.5704240.532054
0.5382260.02332190.450331
0.5131910.7681380.952403
0.7904080.3016530.0434372
0.3284170.622360.766373
0.1862720.5645190.339561
0.2510270.7878020.694365
0.04513140.07401470.734981
0.06632410.3639830.337433
0.1294960.7634120.395678
0.4519360.5685390.719855
0.08424920.6514080.904191
0.4844510.9390760.217938
0.355350.994250.900963
0.1954760.03389620.116821
0.7729620.692030.614234
0.727780.125820.608612
0.6027740.5184490.155444
VERTICES 100 200
1 0
1 1
1 2
1 3
1 4
1 5
1 6
1 7
1 8
1 9
1 10
1 11
1 12
1 13
1 14
1 15
1 16
1 17
1 18
1 19
1 20
1 21
1 22
1 23
1 24
1 25
1 26
1 27
1 28
1 29
1 30
1 31
1 32
1 33
1 34
1 35
1 36
1 37
1 38
1 39
1 40
1 41
1 42
1 43
1 44
1 45
1 46
1 47
1 48
1 49
1 50
1 51
1 52
1 53
1 54
1 55
1 56
1 57
1 58
1 59
1 60
1 61
1 62
1 63
1 64
1 65
1 66
1 67
1 68
1 69
1 70
1 71
1 72
1 73
1 74
1 75
1 76
1 77
1 78
1 79
1 80
1 81
1 82
1 83
1 84
1 85
1 86
1 87
1 88
1 89
1 90
1 91
1 92
1 93
1 94
1 95
1 96
1 97
1 98
1 99
POINT_DATA 100
SCALARS attr0 float
LOOKUP_TABLE default
0.9494255
0.2772013
0.3764421
0.5025018
0.6614359
0.8053668
0.3425626
0.8111961
0.8657068
0.5282862
0.2142366
0.2221354
0.6805948
0.877432
0.4984407
0.9601666
0.5306594
0.3657426
0.5150926
0.8040309
0.6808926
0.1279096
0.7173896
0.9772254
0.2721777
0.9261724
0.580568
0.3219828
0.4972493
0.9388732
0.8330092
0.7799672
0.725488
0.199308
0.09078119
0.8176525
0.1918074
0.9069242
0.8645669
0.6959521
0.68248
0.9797909
0.4915317
0.533063
0.08314063
0.2479446
0.3359151
0.02661425
0.9837726
0.523158
0.7392922
0.9149389
0.4549547
0.8200942
0.2860577
0.6762785
0.07053214
0.7765388
0.5910597
0.9984819
0.7357114
0.5609745
0.01588653
0.152219
0.9983656
0.8402412
0.05025113
0.0691992
0.5646343
0.4968847
0.4328401
0.8670856
0.5023472
0.07904536
0.546933
0.3385688
0.2200379
0.3198014
0.6724178
0.929235
0.5306052
0.6784477
0.2649488
0.1416481
0.9992921
0.6076466
0.625696
0.2597865
0.6593418
0.5274326
0.3000281
0.4729392
0.7189057
0.3125102
0.04781655
0.659605
0.2950812
0.8766288
0.9549252
0.1184959
VECTORS attr1 float
0.6571555733680725 0.6820341348648071 0.02518314495682716 
0.2500879764556885 0.6072337627410889 0.2638248205184937 
0.739673376083374 0.03901848196983337 0.1146077141165733 
0.1946695744991302 0.4017422497272491 0.4756999015808105 
0.4138168096542358 0.2947664856910706 0.681465208530426 
0.01565379463136196 0.6531890630722046 0.1037354543805122 
0.009091082960367203 0.6885247230529785 0.3157951235771179 
0.6670802235603333 0.03299479559063911 0.2624457180500031 
0.4348890781402588 0.1796943694353104 0.04217496514320374 
0.7585052847862244 0.171334519982338 0.6467452049255371 
0.9645077586174011 0.4471376538276672 0.03444629535079002 
0.7471956014633179 0.8639637231826782 0.9788803458213806 
0.6256622672080994 0.4756770431995392 0.6153318285942078 
0.09299211949110031 0.9505829811096191 0.672225296497345 
0.02645017392933369 0.3047248721122742 0.6745986938476562 
0.6686615347862244 0.1980326920747757 0.3493071794509888 
0.5113654732704163 0.7365903258323669 0.3312279880046844 
0.2149011045694351 0.9206470847129822 0.3027870655059814 
0.6241942048072815 0.1932476609945297 0.9030498862266541 
0.7328473329544067 0.7341872453689575 0.7744654417037964 
0.1221259757876396 0.6360638737678528 0.9787770509719849 
0.6331329345703125 0.1726812273263931 0.2966203689575195 
0.1376587897539139 0.4041770696640015 0.315169095993042 
0.421793520450592 0.7069469690322876 0.824834942817688 
0.7771146893501282 0.3693085908889771 0.9595526456832886 
0.1825391054153442 0.9074927568435669 0.2645595073699951 
0.6122758984565735 0.9233602285385132 0.3226791024208069 
0.2391253560781479 0.906687319278717 0.8127450942993164 
0.7996938824653625 0.2448921054601669 0.1226799786090851 
0.694895327091217 0.8715041279792786 0.1840956211090088 
0.6328094601631165 0.9330005645751953 0.9477300643920898 
0.4780030846595764 0.6106562614440918 0.5581955313682556 
0.5307729840278625 0.1758340746164322 0.618852972984314 
0.1414846777915955 0.4442451000213623 0.7473052144050598 
0.002604618668556213 0.4223945438861847 0.09507233649492264 
0.8733763098716736 0.003198110032826662 0.5546110868453979 
0.03937279433012009 0.4732107818126678 0.08701580762863159 
0.9865575432777405 0.5089138746261597 0.051934864372015 
0.5691947340965271 0.09125684946775436 0.2978953421115875 
0.5040035843849182 0.03460608795285225 0.5824763774871826 
0.8839712738990784 0.6903713941574097 0.1257193237543106 
0.7095029354095459 0.007746492512524128 0.349253386259079 
0.3546745479106903 0.2855701744556427 0.8213676810264587 
0.6497137546539307 0.3804705142974854 0.6583295464515686 
0.2404032498598099 0.3044949471950531 0.8414697051048279 
0.06023956462740898 0.4256887435913086 0.5739513635635376 
0.08292200416326523 0.593871533870697 0.2935190498828888 
0.664300262928009 0.9351239204406738 0.5054119229316711 
0.5935549736022949 0.9342896342277527 0.4497299790382385 
0.2333733588457108 0.6807889342308044 0.471148669719696 
0.1234190985560417 0.5410323739051819 0.9430184960365295 
0.8401625752449036 0.005623575765639544 0.5886363983154297 
0.05477363988757133 0.6431674957275391 0.612904965877533 
0.8251454830169678 0.6779215931892395 0.3178769648075104 
0.08200584352016449 0.5612475872039795 0.378754049539566 
0.05226698517799377 0.9559611678123474 0.8471713662147522 
0.732658863067627 0.6729628443717957 0.4703948199748993 
0.1089199706912041 0.1681100428104401 0.8346939086914062 
0.7545257210731506 0.4070000648498535 0.30427286028862 
0.1584199219942093 0.2442104667425156 0.3689626157283783 
0.7876780033111572 0.9506122469902039 0.2419425696134567 
0.2983574271202087 0.0246320441365242 0.2688349783420563 
0.8784769773483276 0.1859880685806274 0.2134706377983093 
0.06647206097841263 0.6497496366500854 0.886615514755249 
0.7378954291343689 0.3824079632759094 0.8949474096298218 
0.01188409514725208 0.7515271902084351 0.5734633207321167 
0.9520556330680847 0.4031108021736145 0.8746667504310608 
0.131470113992691 0.2520027458667755 0.5671915411949158 
0.5446678400039673 0.750556468963623 0.2583857476711273 
0.1194510757923126 0.3957681655883789 0.7933542132377625 
0.7972565293312073 0.8622832298278809 0.08557751774787903 
0.8995644450187683 0.5108648538589478 0.4872995615005493 
0.4745307564735413 0.325320690870285 0.3500612080097198 
0.8787894248962402 0.04352294653654099 0.3563389480113983 
0.6424902081489563 0.6458942294120789 0.3897269368171692 
0.9040027856826782 0.1083123683929443 0.8498001098632812 
0.1746324896812439 0.4942397475242615 0.01067389268428087 
0.896801769733429 0.1641474515199661 0.994819700717926 
0.2753380835056305 0.4863718450069427 0.3209052085876465 
0.7172846794128418 0.101265124976635 0.3932985961437225 
0.4998421967029572 0.1600086241960526 0.7180233597755432 
0.8022973537445068 0.7690542340278625 0.4964640438556671 
0.07587800920009613 0.3023942708969116 0.8214589357376099 
0.2516842186450958 0.9435696601867676 0.2254731953144073 
0.478271096944809 0.03163601830601692 0.9558008313179016 
0.7636690735816956 0.8216108679771423 0.78907310962677 
0.8823415637016296 0.7281975746154785 0.5560091733932495 
0.7622165083885193 0.05964188277721405 0.5395310521125793 
0.2364097982645035 0.8452150821685791 0.04726692661643028 
0.9214244484901428 0.9220276474952698 0.9364806413650513 
0.5443351268768311 0.2213664948940277 0.7469722032546997 
0.4354780316352844 0.1825771182775497 0.2117585688829422 
0.9702302813529968 0.8693584203720093 0.8253592848777771 
0.9114904403686523 0.4594842791557312 0.9703609943389893 
0.4671776294708252 0.3614567518234253 0.7826351523399353 
0.6553133726119995 0.2516477704048157 0.9395176768302917 
0.1940754950046539 0.6297088265419006 0.3234435319900513 
0.5203979015350342 0.9548757076263428 0.6692056655883789 
0.7684593200683594 0.3030602931976318 0.96809321641922 
0.9957742094993591 0.7807062268257141 0.01375700905919075 
SCALARS domain float
LOOKUP_TABLE default
1.0
1.0
1.0
1.0
1.0
1.0
1.0
1.0
1.0
1.0
1.0
1.0
1.0
1.0
1.0
1.0
1.0
1.0
1.0
1.0
1.0
1.0
1.0
1.0
1.0
1.0
1.0
1.0
1.0
1.0
1.0
1.0
1.0
1.0
1.0
1.0
1.0
1.0
1.0
1.0
1.0
1.0
1.0
1.0
1.0
1.0
1.0
1.0
1.0
1.0
1.0
1.0
1.0
1.0
1.0
1.0
1.0
1.0
1.0
1.0
1.0
1.0
1.0
1.0
1.0
1.0
1.0
1.0
1.0
1.0
1.0
1.0
1.0
1.0
1.0
0.0
0.0
0.0
0.0
0.0
0.0
0.0
0.0
0.0
0.0
0.0
0.0
0.0
0.0
0.0
0.0
0.0
0.0
0.0
0.0
0.0
0.0
0.0
0.0
0.0
