<VTKFile type="PolyData" version="1.0" byte_order="LittleEndian" header_type="UInt64">
  <PolyData>
    <Piece NumberOfPoints="300" NumberOfVerts="300">
      <Points>
        <DataArray type="Float64" Name="Points" NumberOfComponents="3" format="ascii">
0.1911204835906995 0.542772234863242 0.9391084311347881
0.9335227608990284 0.7101470601232037 0.6822569448583494
0.2284457291343968 0.5130972196287023 0.4389047685829435
0.7007540749848102 0.4361787988170149 0.434735135904171
0.7514191254733973 0.5225035562075192 0.1968549575205636
0.6663689566001441 0.2615225984428438 0.05012694930186171
0.5737078582990413 0.7683834686091247 0.02258709072014918
0.7502107521285253 0.3131366773447317 0.19084589686671
0.5077175316364888 0.273360300449021 0.2641722528430763
0.6702125993695983 0.9325986239441677 0.2129484658534879
0.5860363067658449 0.006718086774126586 0.5747754901765029
0.3363611228594737 0.2054122738980631 0.440431623980202
0.5538249255373027 0.7405553773322351 0.06481964953019299
0.7645033599042783 0.4689904130208351 0.8781258748480464
0.3234378533328707 0.1816097199071153 0.9438311790843349
0.3299919011397325 0.04307922253241799 0.6885764593311695
0.09579277662756258 0.009829631769177675 0.8011234804051354
0.349360455596186 0.2123068029934974 0.2669917034138964
0.3680017998591057 0.4141731548988385 0.8909741738387503
0.4710369047378018 0.1984811508103827 0.58458962613503
0.3631405123215446 0.9717880950906369 0.5675700369442022
0.1936272575083993 0.04736226888030662 0.3476663842575315
0.07882256103734367 0.8241018204371902 0.303324121142121
0.8929782123803263 0.1475944068992537 0.5895199090756849
0.7687700724840304 0.02155637553820555 0.8795632899834014
0.1737343588966251 0.1312391759682264 0.17974067401153
0.3927977460470061 0.5638048846443161 0.3253738999714265
0.2419903749870181 0.1208916897322556 0.9936496475741036
0.9501923853763414 0.2977338999986025 0.3729671694464203
0.6182502835904014 0.02073462096940045 0.8524181016942401
0.5075412101542851 0.6346851323569729 0.43524397656543
0.8578262048038532 0.812929702544152 0.2636116872245391
0.9059269298306075 0.4261686958250736 0.2429180805371524
0.5515512116013322 0.8266865900593406 0.3942855250116971
0.1074755519593714 0.01803298945630296 0.1228763367408531
0.02765798311323953 0.3156797104442121 0.861391111108758
0.8649262157897809 0.04239008713402315 0.6676403360126352
0.9370865563689328 0.6868358011418787 0.2099227371113735
0.960032065883264 0.2140025856373819 0.456392921993326
0.8382337566752761 0.7050784166412994 0.3799939060676871
0.7435136531742692 0.6709460550123145 0.6715583376718879
0.4344248930297676 0.8796267049016306 0.03229555323147422
0.954833504997737 0.8772878603184187 0.06128421306550307
0.2399140958488387 0.9797094480694694 0.6908761986108142
0.3343371959243262 0.2929608892682191 0.1941379300811617
0.397970957496217 0.06462349669792526 0.1593095428965476
0.6397433510796431 0.5592166427247148 0.6282844533546434
0.3193929764351841 0.6984220029793577 0.80875064534659
0.5349810723983771 0.6057937172680191 0.2157163788956979
0.9324525741709151 0.6335081746180038 0.9545486953786814
0.8600456622149583 0.1708769709007456 0.9015052784692937
0.5813384917185929 0.6969345811768739 0.01371900876345159
0.273512542120408 0.03710026944191182 0.8015997992821039
0.8572047884309643 0.4675072033575237 0.6275424309412285
0.752720738410614 0.9741190960751291 0.4270292877093753
0.3711011035502417 0.2450185705698009 0.1192280246786643
0.7332403106925821 0.911166650750131 0.2402591692561939
0.6591842769835218 0.9067273070538755 0.9200686265621014
0.7232003117803483 0.8263801707297656 0.6209564266628789
0.6650097755878187 0.2864695779110912 0.6442191851585083
0.5509565770388783 0.8313646028603592 0.2494865675692043
0.1361090191006153 0.8439365332741586 0.9957855816484497
0.9585403138964715 0.434624640534341 0.8122126430681847
0.02576744741491627 0.2974174612679438 0.212592003302373
0.9569645649953911 0.06043218399377904 0.3825060332275433
0.6474896468466662 0.4259350465489854 0.08367909021504266
0.4922437558452395 0.6948581858562035 0.9172901085497391
0.5955465333091344 0.1017459290559655 0.165873761677242
0.7152102458219928 0.5528916897937228 0.5560473017133553
0.7271787548776815 0.1902025601872231 0.4797005588283294
0.4528986639562535 0.1919889090620033 0.8002391630782564
0.1897753117653656 0.5758043692559914 0.2555337107016082
0.7871409951303429 0.4268640671265945 0.467209433220695
0.6742162717626354 0.6301241437298599 0.2401900376471737
0.9210282743810544 0.3447579399939822 0.5508949667909672
0.05157142968309511 0.2054241342910453 0.6798739928380242
0.4509434115835729 0.3975326198164688 0.2561928176990744
0.5203486320002244 0.2294494166367457 0.8542700815693149
0.4447680844716876 0.4510409422446783 0.5092696894382733
0.03306415512549497 0.3740759378419836 0.8005538842172577
0.5241983793563217 0.3939801634317356 0.5520479010641351
0.7430373780694616 0.6324951552634616 0.5842160128130502
0.2644295004362103 0.5704235038392136 0.5320537506919104
0.5382255930275537 0.02332186558129179 0.4503306467317368
0.5131908124251334 0.768137676982145 0.9524025549402448
0.7904084488794169 0.3016534904941667 0.04343723573561886
0.3284171929916287 0.6223598420050183 0.7663728286203123
0.1862722212978302 0.5645188321059016 0.3395605285933425
0.2510267294705721 0.7878024916687038 0.6943653734892768
0.04513135247624882 0.0740146524859524 0.7349814112600958
0.06632412990260676 0.3639832542445589 0.3374328332313183
0.1294963133384025 0.7634123220278825 0.3956784722881026
0.4519362433571665 0.5685394247674666 0.7198549109884282
0.08424916137743314 0.6514083344249947 0.9041910993847107
0.4844505633299935 0.9390759491645377 0.2179379692683285
0.3553499535865384 0.9942502239745807 0.9009634640994651
0.1954761365449633 0.03389617077359176 0.1168213434904714
0.7729623207017023 0.6920302497725793 0.6142337803662598
0.7277798272074294 0.1258201226006168 0.6086119675968718
0.602774259586458 0.5184492738831559 0.1554437490853277
0.3690326368114759 0.2995158552427237 0.01173780403950354
0.4754382528013372 0.4212222005374626 0.07132113547002844
0.4882393567877638 0.4627898478820967 0.1639581482559637
0.3861974857811828 0.4841292072161431 0.08662804677773824
0.1207579080384421 0.0618460481931241 0.4870695527703177
0.4626104944792527 0.3892627668617001 0.4838946256861582
0.2285945552966583 0.2321470882826731 0.1359395770654364
0.4994245634882596 0.3085501831683562 0.2300809555546935
0.08730965150179823 0.0420806014248726 0.378270145329521
0.1880562181174493 0.03182471262671765 0.3872162637360319
0.3459972590925185 0.3120088731814135 0.09651703918514912
0.3984266595689456 0.2012818320881194 0.2427781960029257
0.3540473950076627 0.1153638606819492 0.03624035544402881
0.2289308777642758 0.3604461522258604 0.4173461971025233
0.1436100460618688 0.1613187365414022 0.339277801877224
0.282976276924379 0.2581896133449909 0.2858817183711185
0.4329195544436018 0.326510919105955 0.1626255844428085
0.2633821385617451 0.388375480245624 0.2820678718704414
0.1351509435869982 0.3776376151351083 0.2650918317888436
0.3693582065778979 0.0239842254556789 0.1589361181673891
0.3210144576984391 0.2482234364150914 0.1733676174546743
0.2269975995984871 0.4750053363502932 0.4957297145176075
0.01994202855511474 0.4332056244913463 0.3933828151117159
0.4340130283106058 0.1415028122060454 0.05113960090040248
0.2273659379094067 0.152197551493441 0.05633106592282137
0.03819034619341122 0.3457329801303647 0.3465300213561719
0.1972457850597586 0.3860690590757555 0.292313082938868
0.1307978880913938 0.3374807558313567 0.04279071358368233
0.1370507254558379 0.472957261617781 0.4410086939153221
0.2267780939690871 0.1905821484091775 0.3559220797121888
0.4870729900491084 0.487445315002722 0.3122889619263406
0.02884312007630099 0.01810909899971024 0.04388979471107489
0.4700075974827597 0.1055388939075456 0.3777184398482933
0.2411892095156064 0.2902793105271276 0.3577521928317136
0.4126884381227715 0.1774270190263973 0.4964710087531847
0.2560557679943481 0.231897337021354 0.01138175161956728
0.1478821548410309 0.2347061665567075 0.3149793501640766
0.3574673308257632 0.1853180108893113 0.4954605953556203
0.2728031885238349 0.3906367668459952 0.4007786808531831
0.09227176111085723 0.1250442931777591 0.2796222451005028
0.3880389811759633 0.4592617192728157 0.4416006150694561
0.3990293939602425 0.140673521025724 0.4120369055718012
0.2319823510563083 0.2114714541419077 0.4680933848870483
0.4574211819761334 0.09083749058617396 0.1420901880403561
0.1524956477095859 0.03570982311586392 0.2015751063816365
0.002651345332781158 0.3997292069719502 0.4571868790280135
0.4646997611435597 0.1327741355016948 0.07835921268986575
0.1709721897863913 0.1401478957197871 0.1756503492707152
0.3855656202018421 0.1078314244012202 0.386324640416389
0.3476090871972921 0.1484312344582606 0.1705768249600302
0.1641015565655653 0.2975839100323692 0.3357977961023348
0.17606404392232 0.1005593335253376 0.3271957628535127
0.1728385922392651 0.02875830057134931 0.3603236701524241
0.04855954481821528 0.3599533127341637 0.4289799502915796
0.4342146788564442 0.161936851841427 0.1057877460933347
0.4910567813827392 0.1680187522815453 0.2951836469372811
0.3937180466513531 0.3431543111367364 0.04934587944329442
0.1654090469631324 0.175406956497856 0.2103492084609581
0.2407764070710277 0.4068076096443424 0.3041335155469675
0.05211969287967324 0.236227916676445 0.3320007833736014
0.3324463468359568 0.312938627990457 0.4904742770639834
0.3845836979408824 0.1366164077135658 0.03984963112052082
0.04197918353975789 0.2770509808198311 0.488044396746883
0.1523170854652686 0.4175909462302965 0.05842132712322225
0.07795069188440652 0.4516420173683939 0.3680135554782983
0.2515045703614575 0.3249977862811658 0.187822885723867
0.05000504918861899 0.2136188878381537 0.4557390817414321
0.2839739784672978 0.04546152006580424 0.4104097800280853
0.1772040361877512 0.4776894643541009 0.2553472655101925
0.3900439539504964 0.2085702023661834 0.4443156983729845
0.1992451683854474 0.2073659170617508 0.1395777920775219
0.02577117002766059 0.4440253885956363 0.3933766681498956
0.1301630138744772 0.1280659532043776 0.03414304250192687
0.2206772749914428 0.493485808375531 0.3225875296291953
0.01052725582359021 0.4071305599496092 0.456489311435032
0.09818411171520869 0.304480952651016 0.1455824064809911
0.3031697905142001 0.3180265315724413 0.340674796332291
0.3406710187715147 0.4957590112482388 0.2535063973611656
0.05033666009533375 0.4037302687513967 0.4417382244990495
0.1310477848718652 0.4892544070075944 0.1449805389181801
0.3750279684900176 0.4254996265864467 0.3294554336092177
0.4628920345739964 0.3298941481253625 0.1558321692720837
0.01770011358070182 0.1768119854727704 0.30381980337956
0.2380588100114563 0.2970005066380834 0.2010848445579946
0.2855877906384003 0.07099396289745627 0.3982364353033545
0.2808536914964888 0.2716763289544376 0.1704501024584984
0.1589199089636468 0.03634979935067249 0.3569811639110645
0.2772249606078374 0.09990549210929056 0.3355092214953577
0.1662470178370145 0.07899748215964181 0.0572782276164376
0.2770472005815026 0.3518858076530109 0.02658539089533249
0.1875440074654557 0.4680926721924484 0.1861845667305474
0.1871238121822831 0.3694272457531527 0.2263375684961967
0.1262693642050636 0.2681416978509437 0.4864295707147431
0.02836166646873501 0.476249909621547 0.4910517461872418
0.4634665968066702 0.04706900867304345 0.3628219523873078
0.1606046176000477 0.08687542619329158 0.06225241065851766
0.133423695162207 0.4737714714259973 0.125623517494824
0.3489826195412397 0.3286024371261697 0.3661714309751189
0.003918584434353474 0.4967085589902901 0.1743685300814135
0.2885250617803423 0.016649206626858 0.3392371711836955
0.1185511618300568 0.2846263764497701 0.04004476988220365
0.2293192447492298 0.05170273298784032 0.1566124762144813
0.2894644335892683 0.04305508255816293 0.2300187619263219
0.1286969889520216 0.2373467056605282 0.02733017882456529
0.08333089415294541 0.1403397213014123 0.06220433920984885
0.1689568324624762 0.1460420853709606 0.1677541596266655
0.2112925272149534 0.004161828731111331 0.1548767818115294
0.08111194168165702 0.08472529806442312 0.271467431298705
0.2215855312665992 0.06591763861201813 0.04017204698632841
0.180772743522761 0.1375455529021353 0.07452570662157344
0.2666632916700731 0.1919282873897216 0.1687625991791661
0.1040259806420533 0.07513766622862887 0.1833285201185716
0.1697418355523879 0.1412024603964749 0.2474525777169258
0.05261870904238024 0.1595209343081709 0.1656246999671568
0.2135241268605347 0.05248268500320489 0.03639449792150664
0.2249578095157827 0.1203983787119396 0.04116209517644621
0.01861678263236918 0.2480160669432878 0.1217340906515093
0.07358509433754482 0.1772848450218864 0.2448509257776426
0.08833275945469142 0.2333877706046273 0.02892322203660233
0.1275829888286148 0.00424041067983936 0.02076071392709356
0.1340851374044618 0.1630418841200686 0.1382774975671072
0.2694811684920074 0.00919095449652944 0.2041277690771372
0.1252594957941866 0.01573821950436653 0.04683406583646588
0.1904051649661711 0.02636175713205628 0.05313663298583746
0.2192986664505216 0.1878777182950276 0.2964064838614284
0.2287153124209887 0.09029909652178217 0.07548724698112941
0.114361283409241 0.1758779379651519 0.06081281532029956
0.02516896243897781 0.1224165250908506 0.02831871498920083
0.2884957315919475 0.1084095842631489 0.2869446470695806
0.1836106709048102 0.2162378614692773 0.1827418946741419
0.159681262863017 0.1951844339514224 0.1281057929256438
0.2957200920462049 0.05362063229381078 0.1433730235121339
0.1478917872077358 0.222326973326352 0.2544648378135335
0.1725896850123118 0.298237337452249 0.1551467522256324
0.2721337934387225 0.2574442506034652 0.04984037664260697
0.0357416149993699 0.0960289964703708 0.1283427539382396
0.06898090109742204 0.04302602347776944 0.06901845740200092
0.2191866322564023 0.1584504230607066 0.01337847166537379
0.1891430821785968 0.05383451003402727 0.0788225858338072
0.04321119892727062 0.1555524718921853 0.03965175885723356
0.2172593906907088 0.2316739756000815 0.2499621075811041
0.1640370700675822 0.2023892226617834 0.2529098502579565
0.04850967868766296 0.1524042653141523 0.2059567100573532
0.2046580508096804 0.004322132629192372 0.04429704242185827
0.1688886373681535 0.2248516032589359 0.2215415322819997
0.1377147908612551 0.1665120848610475 0.02685107818019992
0.228218722167323 0.04242046785428166 0.1074816262081817
0.02260656295222856 0.1861980120017202 0.2403949150860333
0.1204429892960736 0.264824664003763 0.09092132563659859
0.05655570712100914 0.1988679843727183 0.08920777356754626
0.2563957191508283 0.1685504154914289 0.2653974148140301
0.2668063793485954 0.1186243698612673 0.03592685065887549
0.2579220390608897 0.09674563193845299 0.2008815343953289
0.2551676314067246 0.01239063846301723 0.0651889668008364
0.02597879740596805 0.03162233113235685 0.1767535912679724
0.0498856490478452 0.05316770358329281 0.1067840573346316
0.138537688255991 0.1737555026897436 0.01839525808189285
0.1239685358135176 0.01572409823270324 0.2635389137251587
0.2938420681078722 0.1333094834893432 0.258649204574223
0.157129843180473 0.1509163303296471 0.2692777334157015
0.255548305737065 0.2303155626727661 0.1735298334976985
0.1768351781988353 0.07060731078004123 0.0005771291672358619
0.1756279029298444 0.09793896740398418 0.2378819708535997
0.2740279449270908 0.2097668221174894 0.006667118679421433
0.2484909958445974 0.1463812662072567 0.279761862461566
0.07803478381688017 0.1515174400519964 0.2598968852963778
0.04469580322285378 0.2344188619011925 0.132030158009366
0.2586628349457575 0.2996810422513256 0.1095363527491985
0.2626937757187086 0.05257222251846817 0.09280888699329974
0.1470855013480943 0.001922932289576655 0.2040676025189145
0.1401336077181 0.08192646827924695 0.0376032890576854
0.2820185765242118 0.1875745709112032 0.2644915908507576
0.2809323204304406 0.2912768442690015 0.1528078526943885
0.165250080863363 0.2021074608657009 0.1993722448361235
0.1882134371957679 0.2949212917848856 0.2383584796738073
0.1811573225626921 0.207082024911846 0.1549223213200819
0.1301169881922579 0.006154670353906848 0.08076072673743556
0.2158232428758297 0.07021174320475583 0.07466628196431963
0.2321663813282892 0.2072172320647085 0.2349311055685714
0.1439464608002703 0.2927377327379129 0.1544796044218915
0.1781653001074841 0.008384524398304278 0.005119718073345852
0.04491016292250242 0.1593709222695926 0.09792453718933995
0.2315868572417708 0.2609747091257131 0.1558167658719156
0.2002830334006422 0.1456689676057226 0.07763117471354493
0.05333915590153115 0.1217801066014077 0.02714059798645759
0.1834620044410871 0.2652489124260615 0.1603177173247944
0.044482403670213 0.1575956141540801 0.1421779928765362
0.1662439922028016 0.1959395480128287 0.04153907993271058
0.1199715689197315 0.2241556342113038 0.1422308717890499
0.1167217518823586 0.1185378373281388 0.208966556559798
0.146647844534997 0.156781864279517 0.1575377787428266
0.08708556886432432 0.07539593152450587 0.2332214504558493
0.01505569768368467 0.04266832708722524 0.1218800741378776
0.2452370229897848 0.2208322028299644 0.09502735149812543
0.02336527117371314 0.0683381011857008 0.0620538466088223
0.2706230518544917 0.1443967507479727 0.2491175094390672
0.02113605974189189 0.1015577913021865 0.08251933942897276
0.2580949420770188 0.2883309685912305 0.1493632569213569
0.1757886855742947 0.2805548562293151 0.166442327240276
0.1311776288407027 0.07064723336573353 0.2828661728730117
        </DataArray>
      </Points>
      <Verts>
        <DataArray type="Int64" Name="connectivity" format="ascii">
0
1
2
3
4
5
6
7
8
9
10
11
12
13
14
15
16
17
18
19
20
21
22
23
24
25
26
27
28
29
30
31
32
33
34
35
36
37
38
39
40
41
42
43
44
45
46
47
48
49
50
51
52
53
54
55
56
57
58
59
60
61
62
63
64
65
66
67
68
69
70
71
72
73
74
75
76
77
78
79
80
81
82
83
84
85
86
87
88
89
90
91
92
93
94
95
96
97
98
99
100
101
102
103
104
105
106
107
108
109
110
111
112
113
114
115
116
117
118
119
120
121
122
123
124
125
126
127
128
129
130
131
132
133
134
135
136
137
138
139
140
141
142
143
144
145
146
147
148
149
150
151
152
153
154
155
156
157
158
159
160
161
162
163
164
165
166
167
168
169
170
171
172
173
174
175
176
177
178
179
180
181
182
183
184
185
186
187
188
189
190
191
192
193
194
195
196
197
198
199
200
201
202
203
204
205
206
207
208
209
210
211
212
213
214
215
216
217
218
219
220
221
222
223
224
225
226
227
228
229
230
231
232
233
234
235
236
237
238
239
240
241
242
243
244
245
246
247
248
249
250
251
252
253
254
255
256
257
258
259
260
261
262
263
264
265
266
267
268
269
270
271
272
273
274
275
276
277
278
279
280
281
282
283
284
285
286
287
288
289
290
291
292
293
294
295
296
297
298
299
        </DataArray>
                <DataArray type="Int64" Name="offsets" format="ascii">
1
2
3
4
5
6
7
8
9
10
11
12
13
14
15
16
17
18
19
20
21
22
23
24
25
26
27
28
29
30
31
32
33
34
35
36
37
38
39
40
41
42
43
44
45
46
47
48
49
50
51
52
53
54
55
56
57
58
59
60
61
62
63
64
65
66
67
68
69
70
71
72
73
74
75
76
77
78
79
80
81
82
83
84
85
86
87
88
89
90
91
92
93
94
95
96
97
98
99
100
101
102
103
104
105
106
107
108
109
110
111
112
113
114
115
116
117
118
119
120
121
122
123
124
125
126
127
128
129
130
131
132
133
134
135
136
137
138
139
140
141
142
143
144
145
146
147
148
149
150
151
152
153
154
155
156
157
158
159
160
161
162
163
164
165
166
167
168
169
170
171
172
173
174
175
176
177
178
179
180
181
182
183
184
185
186
187
188
189
190
191
192
193
194
195
196
197
198
199
200
201
202
203
204
205
206
207
208
209
210
211
212
213
214
215
216
217
218
219
220
221
222
223
224
225
226
227
228
229
230
231
232
233
234
235
236
237
238
239
240
241
242
243
244
245
246
247
248
249
250
251
252
253
254
255
256
257
258
259
260
261
262
263
264
265
266
267
268
269
270
271
272
273
274
275
276
277
278
279
280
281
282
283
284
285
286
287
288
289
290
291
292
293
294
295
296
297
298
299
300
        </DataArray>
      </Verts>
      <PointData>
        <DataArray type="Float32" Name="attr0" format="ascii">
0.8529708
0.298533
0.3744993
0.6559722
0.8652724
0.6160347
0.08231235
0.9933323
0.2320302
0.1183546
0.01906014
0.9418144
0.603229
0.354637
0.7111624
0.4039625
0.9216934
0.1072938
0.2456609
0.3170583
0.9577457
0.2063259
0.6536888
0.447751
0.3411559
0.8043212
0.4678461
0.5357695
0.772
0.7299173
0.2586038
0.3270002
0.4396037
0.3925552
0.004308898
0.6981738
0.4786127
0.6513046
0.6595165
0.3938166
0.5329039
0.9791282
0.02307406
0.4556608
0.01003828
0.03055396
0.9450146
0.5608311
0.7953176
0.01379246
0.7882684
0.5122852
0.3974684
0.937954
0.5948561
0.05506884
0.6949601
0.0438762
0.636348
0.2459334
0.3821134
0.4021311
0.9374649
0.573764
0.8089213
0.4420139
0.9685401
0.7011389
0.7462636
0.3388373
0.2564686
0.0582759
0.1396204
0.339956
0.5389212
0.5005374
0.1072275
0.6504886
0.7827501
0.7392346
0.959145
0.6870436
0.01753723
0.387559
0.2418156
0.1735155
0.356896
0.5593037
0.9134971
0.7036808
0.9183536
0.6697222
0.07820559
0.4964983
0.7684861
0.4063318
0.6813779
0.05912127
0.7878197
0.5576111
0.5873617
0.8740048
0.2134402
0.001495549
0.9837323
0.8105871
0.6399922
0.05851735
0.07949429
0.5538782
0.6482655
0.8818434
0.9705274
0.9642821
0.8888651
0.3289186
0.129298
0.6068508
0.5726061
0.3960887
0.899592
0.9487336
0.1422059
0.9483229
0.08681852
0.24225
0.1743567
0.1233244
0.3780051
0.5419158
0.02661112
0.233866
0.6399148
0.1825597
0.2825412
0.1883141
0.5717845
0.8329124
0.4957254
0.175924
0.3290277
0.4449715
0.6027424
0.2816668
0.6163737
0.0327232
0.7745816
0.4607171
0.7566994
0.2297572
0.7387367
0.3680858
0.0711445
0.3514173
0.8829913
0.9934199
0.826638
0.7169546
0.006114672
0.7049448
0.9766319
0.02015841
0.4784243
0.7353437
0.9707181
0.574414
0.07556318
0.2033864
0.495641
0.9734944
0.04775531
0.3251079
0.6214603
0.9254883
0.04193668
0.1200856
0.7080642
0.8810247
0.9400363
0.5598458
0.6154476
0.09599476
0.002017161
0.2200292
0.9431561
0.9700263
0.6571889
0.4231478
0.8581523
0.09990912
0.7024314
0.411173
0.2585146
0.1346781
0.7154943
0.784025
0.1056415
0.5404205
0.5433266
0.3691963
0.2975725
0.5015478
0.5941165
0.1929471
0.5954264
0.563149
0.8414957
0.4295211
0.6484548
0.5605351
0.02805235
0.8647353
0.01985616
0.6042695
0.9044887
0.467788
0.7763534
0.7293949
0.4480733
0.7979131
0.4535534
0.004086397
0.8337277
0.3346388
0.3684492
0.4435953
0.3963957
0.3156907
0.8560401
0.08915854
0.2861219
0.7489092
0.864509
0.7681607
0.1926944
0.346131
0.942188
0.3957103
0.3976733
0.626924
0.7652794
0.9726949
0.09021607
0.355193
0.1896387
0.751826
0.3089158
0.831476
0.5276415
0.3509859
0.4451742
0.5167726
0.8629208
0.06411378
0.2860149
0.9771696
0.2118585
0.6650727
0.6309843
0.7679862
0.09576546
0.6695392
0.2205858
0.5431652
0.1119347
0.3545573
0.5758216
0.349471
0.2549463
0.9099419
0.957428
0.2278405
0.5905658
0.03862984
0.5241008
0.6429567
0.01495586
0.7304558
0.8697113
0.3289562
0.127755
0.7711008
0.511895
0.02170832
0.5705872
0.3277772
0.2892382
0.7211331
0.4184968
0.3001323
0.007203105
0.3115555
0.4712839
0.09712131
0.9744084
0.05794625
0.9391234
0.9372373
0.6360101
0.5553766
        </DataArray>
        <DataArray type="Float32" Name="attr1" NumberOfComponents="3" format="ascii">
0.9748546 0.182712 0.3535236
0.4241601 0.1101105 0.5790349
0.1902463 0.0614199 0.3732455
0.6113957 0.8041492 0.787833
0.2583924 0.08826474 0.5169995
0.9328642 0.7964005 0.7617198
0.2024633 0.9337424 0.2332229
0.6473725 0.9371002 0.3275327
0.3809074 0.7448412 0.3949404
0.5634099 0.2960636 0.0811892
0.7858039 0.9718763 0.4657843
0.5460901 0.5123132 0.06088727
0.4147854 0.3041754 0.9830479
0.6366761 0.4065048 0.3107939
0.6655521 0.7402906 0.689837
0.826659 0.1784595 0.9314455
0.7306508 0.3393511 0.4878008
0.8122793 0.3438141 0.05609748
0.8650802 0.3094309 0.7284318
0.5407271 0.3872222 0.7888145
0.9691333 0.2956242 0.2399967
0.9060355 0.6311221 0.05721635
0.5894753 0.1962016 0.486468
0.1134491 0.009212147 0.4017782
0.05546112 0.6992846 0.9515968
0.3238258 0.9396088 0.882476
0.7591307 0.4169663 0.6945408
0.2788 0.2640223 0.5175088
0.9518524 0.2208626 0.7925265
0.6604245 0.03514157 0.7651433
0.6208919 0.9170631 0.2996711
0.6331988 0.285234 0.2312221
0.4688247 0.6116786 0.8488709
0.6856259 0.4372997 0.513253
0.7864857 0.8713554 0.7607441
0.03531391 0.7839497 0.1752601
0.2674783 0.34223 0.5800824
0.2304249 0.4929353 0.1603168
0.9211613 0.06894496 0.2015761
0.5015174 0.1940016 0.5873939
0.4677942 0.3057775 0.4958839
0.5834142 0.2494362 0.6523666
0.9476014 0.8729799 0.6258418
0.07456589 0.2816161 0.1563227
0.7220195 0.1972917 0.9517298
0.6288804 0.3116755 0.8884595
0.483631 0.6064499 0.06215089
0.7009501 0.9068989 0.806163
0.5099639 0.03860291 0.2881065
0.1574303 0.7371178 0.704073
0.6349016 0.8211598 0.391876
0.003889594 0.4352304 0.8705321
0.3647161 0.03622204 0.02821916
0.5238011 0.2221802 0.2451298
0.5053651 0.3006779 0.2938548
0.1663796 0.5242463 0.06217061
0.6070892 0.6403464 0.1851591
0.8117476 0.2786359 0.4168594
0.2731472 0.0415833 0.8500853
0.6642985 0.8504629 0.7662774
0.7986866 0.7289335 0.002117605
0.4334844 0.6378342 0.3287259
0.08847254 0.8852004 0.4148983
0.2963465 0.3210694 0.9887694
0.2324456 0.3373964 0.6322526
0.6554861 0.8022766 0.1004898
0.07537887 0.4623345 0.6573912
0.5525154 0.9374337 0.7782122
0.2593105 0.348355 0.5672165
0.6842615 0.140062 0.1539859
0.6642151 0.3211423 0.4370744
0.4208756 0.6644645 0.08784787
0.8343186 0.7353206 0.7499294
0.8967711 0.4597146 0.6796811
0.1976504 0.1261739 0.3278354
0.7104537 0.8386217 0.6495257
0.4271757 0.9333631 0.5513873
0.5743707 0.4243183 0.519411
0.3616842 0.2720152 0.03516268
0.9140911 0.7507826 0.7903351
0.9840599 0.3458912 0.8130444
0.05248167 0.05372164 0.389588
0.08259923 0.3487448 0.6464238
0.4099824 0.5866943 0.01541065
0.1820729 0.2833438 0.3166682
0.9814538 0.006706185 0.9473737
0.2595895 0.2080055 0.3211864
0.9312997 0.2676533 0.9780821
0.6824234 0.6156911 0.2228432
0.3408622 0.3732694 0.8470042
0.4359988 0.884016 0.8944225
0.3391803 0.9534512 0.7991527
0.196631 0.9317092 0.3362087
0.9169337 0.581745 0.6951519
0.1365367 0.4202633 0.937414
0.9001715 0.9915178 0.6919283
0.3602262 0.4991338 0.01001521
0.6424809 0.053374 0.1190055
0.812589 0.8529339 0.5976827
0.3563754 0.9276032 0.9415125
0.118846 0.2845806 0.4985479
0.4655708 0.1824962 0.4190991
0.02253608 0.2169829 0.2436388
0.7489657 0.283258 0.4751518
0.6089736 0.6223137 0.7392471
0.6233074 0.04511229 0.5637
0.6364312 0.5456192 0.6361949
0.538857 0.09224506 0.4588159
0.7756289 0.9963474 0.113348
0.1989962 0.09692258 0.8314249
0.467768 0.6943737 0.9605959
0.4879262 0.001340698 0.90294
0.7998453 0.5532623 0.06975289
0.7120366 0.530658 0.1581565
0.8783872 0.4725255 0.01879028
0.2358644 0.5446841 0.4405788
0.9404694 0.7044941 0.5076056
0.09419347 0.144959 0.04641719
0.9671572 0.8019916 0.5690894
0.02404979 0.3222271 0.6117853
0.2925248 0.5600246 0.08783633
0.2162311 0.4139982 0.5061119
0.3193631 0.08435674 0.354575
0.6885231 0.5423442 0.5272425
0.002121294 0.5437131 0.9591583
0.4674174 0.3421274 0.8366987
0.8518582 0.8118687 0.9446769
0.6292673 0.703697 0.9581603
0.3712003 0.7593519 0.7815391
0.2771769 0.6152929 0.1145995
0.9049377 0.6952723 0.3706018
0.05791603 0.7255687 0.1057224
0.03193478 0.4592177 0.9953473
0.6012 0.7887565 0.03176999
0.672655 0.6730939 0.7649927
0.3354424 0.583163 0.6313986
0.9995645 0.9725542 0.9139851
0.5587004 0.729931 0.06208589
0.435946 0.5497803 0.645716
0.3627431 0.4030407 0.2017837
0.1479098 0.5919991 0.5780127
0.7366132 0.3731074 0.1645189
0.5636996 0.6763025 0.4271737
0.3769491 0.8765868 0.3685486
0.1871042 0.4049199 0.06695128
0.2193345 0.2680056 0.9098098
0.6748514 0.7583408 0.6624454
0.5444291 0.002246417 0.2614691
0.2804673 0.07199135 0.8264676
0.09341249 0.9414622 0.8795042
0.8737362 0.6299006 0.3394902
0.7075377 0.5259244 0.8035644
0.05540885 0.2141117 0.5946758
0.1177505 0.9583438 0.107447
0.04784222 0.4185975 0.8621246
0.6326312 0.7229671 0.7335341
0.5584334 0.3448331 0.3660832
0.30709 0.09122103 0.4504981
0.2910133 0.1796196 0.9722494
0.9368087 0.4745102 0.8999073
0.2261222 0.4414807 0.120103
0.7128155 0.1348507 0.798704
0.5894381 0.8392854 0.604777
0.124083 0.6374041 0.9535059
0.2776331 0.2265063 0.8103985
0.956562 0.3160702 0.5508837
0.3442618 0.03584294 0.5144579
0.5543059 0.8206813 0.2222772
0.0697513 0.4279592 0.7444149
0.8940477 0.342507 0.4772951
0.9413781 0.7506931 0.5209978
0.01204313 0.6100267 0.06823859
0.7523918 0.4793535 0.2295646
0.9641434 0.1083163 0.304055
0.625999 0.6228648 0.9449765
0.171931 0.2295011 0.03589
0.8898231 0.8549412 0.5689448
0.09681616 0.4328475 0.125681
0.5009308 0.5830184 0.7820445
0.0197209 0.2944963 0.3353985
0.8703274 0.1321809 0.09877967
0.3706777 0.8566727 0.704303
0.05883907 0.838349 0.9935846
0.915902 0.3670991 0.8747852
0.8726032 0.6664792 0.09730455
0.7375001 0.07554375 0.4984249
0.1544282 0.777809 0.6615996
0.1559422 0.5790551 0.943966
0.7901587 0.2513628 0.6787826
0.1533425 0.9859115 0.5911328
0.302553 0.1352382 0.2997274
0.8905112 0.9618567 0.8079476
0.7041107 0.6599124 0.05514744
0.3495654 0.2836183 0.002033976
0.5000019 0.03994759 0.3136394
0.693019 0.2549273 0.4825498
0.1085699 0.5301117 0.8539335
0.4425995 0.2049748 0.07652891
0.2142174 0.785323 0.7538005
0.4650302 0.6243752 0.6741527
0.02135292 0.6103745 0.9763628
0.0497878 0.0303411 0.8805022
0.4579693 0.1034673 0.4846284
0.4184919 0.4825779 0.9556063
0.1863809 0.3183447 0.9775377
0.7401186 0.7009468 0.003264953
0.7918574 0.6276355 0.04991206
0.6082056 0.2555821 0.8083426
0.01712132 0.2993197 0.9886052
0.7096261 0.9665291 0.9778993
0.8743482 0.517521 0.7659602
0.7937461 0.7688173 0.3705569
0.1569995 0.1452445 0.8859792
0.9813515 0.1495767 0.5970122
0.6446931 0.3648909 0.6606749
0.1829048 0.6102539 0.3404088
0.3123941 0.4041222 0.0724808
0.02774338 0.4667966 0.1525297
0.8299741 0.4387751 0.903654
0.4465366 0.325474 0.1589254
0.5312997 0.9626195 0.9197928
0.1839568 0.3926444 0.06868142
0.8855224 0.3408713 0.4069305
0.3196138 0.6995248 0.04282044
0.3975496 0.3111648 0.9437472
0.9016082 0.9270398 0.3714305
0.6607151 0.8137829 0.2186289
0.05809139 0.685765 0.05399829
0.665495 0.487526 0.4398769
0.730593 0.3953584 0.5735964