# vtk DataFile Version 3.0
Graph
ASCII
DATASET POLYDATA
POINTS 4 float
0.000000 0.000000 0.000000
0.000000 1.000000 0.000000
1.000000 0.000000 0.000000
1.000000 1.000000 0.000000
VERTICES 4 8
1 0
1 1
1 2
1 3
LINES 4 12
2 0 1
2 1 3
2 2 0
2 3 2
POINT_DATA 4
VECTORS x float
0.000000 0.000000 0
0.000000 1.000000 0
1.000000 0.000000 0
1.000000 1.000000 0
SCALARS prp1 unsigned_long
LOOKUP_TABLE default
0
0
0
0
SCALARS prp2 double
LOOKUP_TABLE default
0.000000
0.000000
0.000000
0.000000
CELL_DATA 8
SCALARS x float
LOOKUP_TABLE default
0
0
0
0
0.000000
0.000000
0.000000
0.000000
SCALARS y float
LOOKUP_TABLE default
0
0
0
0
0.000000
0.000000
0.000000
0.000000
SCALARS z float
LOOKUP_TABLE default
0
0
0
0
0.000000
0.000000
0.000000
0.000000
SCALARS prp1 float
LOOKUP_TABLE default
0
0
0
0
0.000000
0.000000
0.000000
0.000000
SCALARS prp2 unsigned_long
LOOKUP_TABLE default
0
0
0
0
0
0
0
0
SCALARS prp3 double
LOOKUP_TABLE default
0
0
0
0
0.000000
0.000000
0.000000
0.000000
SCALARS prp4 unsigned_char
LOOKUP_TABLE default
0
0
0
0
0
0
0
0
SCALARS prp5 long
LOOKUP_TABLE default
0
0
0
0
0
0
0
0
