<VTKFile type="PolyData" version="1.0" byte_order="LittleEndian" header_type="UInt64">
  <PolyData>
    <FieldData>
        <DataArray type="Float64" Name="TimeValue" NumberOfTuples="1" format="ascii">
5.123000
      </DataArray>
    </FieldData>
    <Piece NumberOfPoints="100" NumberOfVerts="100">
      <Points>
        <DataArray type="Float64" Name="Points" NumberOfComponents="3" format="ascii">
0.1911204835906995 0.542772234863242 0.9391084311347881
0.9335227608990284 0.7101470601232037 0.6822569448583494
0.2284457291343968 0.5130972196287023 0.4389047685829435
0.7007540749848102 0.4361787988170149 0.434735135904171
0.7514191254733973 0.5225035562075192 0.1968549575205636
0.6663689566001441 0.2615225984428438 0.05012694930186171
0.5737078582990413 0.7683834686091247 0.02258709072014918
0.7502107521285253 0.3131366773447317 0.19084589686671
0.5077175316364888 0.273360300449021 0.2641722528430763
0.6702125993695983 0.9325986239441677 0.2129484658534879
0.5860363067658449 0.006718086774126586 0.5747754901765029
0.3363611228594737 0.2054122738980631 0.440431623980202
0.5538249255373027 0.7405553773322351 0.06481964953019299
0.7645033599042783 0.4689904130208351 0.8781258748480464
0.3234378533328707 0.1816097199071153 0.9438311790843349
0.3299919011397325 0.04307922253241799 0.6885764593311695
0.09579277662756258 0.009829631769177675 0.8011234804051354
0.349360455596186 0.2123068029934974 0.2669917034138964
0.3680017998591057 0.4141731548988385 0.8909741738387503
0.4710369047378018 0.1984811508103827 0.58458962613503
0.3631405123215446 0.9717880950906369 0.5675700369442022
0.1936272575083993 0.04736226888030662 0.3476663842575315
0.07882256103734367 0.8241018204371902 0.303324121142121
0.8929782123803263 0.1475944068992537 0.5895199090756849
0.7687700724840304 0.02155637553820555 0.8795632899834014
0.1737343588966251 0.1312391759682264 0.17974067401153
0.3927977460470061 0.5638048846443161 0.3253738999714265
0.2419903749870181 0.1208916897322556 0.9936496475741036
0.9501923853763414 0.2977338999986025 0.3729671694464203
0.6182502835904014 0.02073462096940045 0.8524181016942401
0.5075412101542851 0.6346851323569729 0.43524397656543
0.8578262048038532 0.812929702544152 0.2636116872245391
0.9059269298306075 0.4261686958250736 0.2429180805371524
0.5515512116013322 0.8266865900593406 0.3942855250116971
0.1074755519593714 0.01803298945630296 0.1228763367408531
0.02765798311323953 0.3156797104442121 0.861391111108758
0.8649262157897809 0.04239008713402315 0.6676403360126352
0.9370865563689328 0.6868358011418787 0.2099227371113735
0.960032065883264 0.2140025856373819 0.456392921993326
0.8382337566752761 0.7050784166412994 0.3799939060676871
0.7435136531742692 0.6709460550123145 0.6715583376718879
0.4344248930297676 0.8796267049016306 0.03229555323147422
0.954833504997737 0.8772878603184187 0.06128421306550307
0.2399140958488387 0.9797094480694694 0.6908761986108142
0.3343371959243262 0.2929608892682191 0.1941379300811617
0.397970957496217 0.06462349669792526 0.1593095428965476
0.6397433510796431 0.5592166427247148 0.6282844533546434
0.3193929764351841 0.6984220029793577 0.80875064534659
0.5349810723983771 0.6057937172680191 0.2157163788956979
0.9324525741709151 0.6335081746180038 0.9545486953786814
0.8600456622149583 0.1708769709007456 0.9015052784692937
0.5813384917185929 0.6969345811768739 0.01371900876345159
0.273512542120408 0.03710026944191182 0.8015997992821039
0.8572047884309643 0.4675072033575237 0.6275424309412285
0.752720738410614 0.9741190960751291 0.4270292877093753
0.3711011035502417 0.2450185705698009 0.1192280246786643
0.7332403106925821 0.911166650750131 0.2402591692561939
0.6591842769835218 0.9067273070538755 0.9200686265621014
0.7232003117803483 0.8263801707297656 0.6209564266628789
0.6650097755878187 0.2864695779110912 0.6442191851585083
0.5509565770388783 0.8313646028603592 0.2494865675692043
0.1361090191006153 0.8439365332741586 0.9957855816484497
0.9585403138964715 0.434624640534341 0.8122126430681847
0.02576744741491627 0.2974174612679438 0.212592003302373
0.9569645649953911 0.06043218399377904 0.3825060332275433
0.6474896468466662 0.4259350465489854 0.08367909021504266
0.4922437558452395 0.6948581858562035 0.9172901085497391
0.5955465333091344 0.1017459290559655 0.165873761677242
0.7152102458219928 0.5528916897937228 0.5560473017133553
0.7271787548776815 0.1902025601872231 0.4797005588283294
0.4528986639562535 0.1919889090620033 0.8002391630782564
0.1897753117653656 0.5758043692559914 0.2555337107016082
0.7871409951303429 0.4268640671265945 0.467209433220695
0.6742162717626354 0.6301241437298599 0.2401900376471737
0.9210282743810544 0.3447579399939822 0.5508949667909672
0.05157142968309511 0.2054241342910453 0.6798739928380242
0.4509434115835729 0.3975326198164688 0.2561928176990744
0.5203486320002244 0.2294494166367457 0.8542700815693149
0.4447680844716876 0.4510409422446783 0.5092696894382733
0.03306415512549497 0.3740759378419836 0.8005538842172577
0.5241983793563217 0.3939801634317356 0.5520479010641351
0.7430373780694616 0.6324951552634616 0.5842160128130502
0.2644295004362103 0.5704235038392136 0.5320537506919104
0.5382255930275537 0.02332186558129179 0.4503306467317368
0.5131908124251334 0.768137676982145 0.9524025549402448
0.7904084488794169 0.3016534904941667 0.04343723573561886
0.3284171929916287 0.6223598420050183 0.7663728286203123
0.1862722212978302 0.5645188321059016 0.3395605285933425
0.2510267294705721 0.7878024916687038 0.6943653734892768
0.04513135247624882 0.0740146524859524 0.7349814112600958
0.06632412990260676 0.3639832542445589 0.3374328332313183
0.1294963133384025 0.7634123220278825 0.3956784722881026
0.4519362433571665 0.5685394247674666 0.7198549109884282
0.08424916137743314 0.6514083344249947 0.9041910993847107
0.4844505633299935 0.9390759491645377 0.2179379692683285
0.3553499535865384 0.9942502239745807 0.9009634640994651
0.1954761365449633 0.03389617077359176 0.1168213434904714
0.7729623207017023 0.6920302497725793 0.6142337803662598
0.7277798272074294 0.1258201226006168 0.6086119675968718
0.602774259586458 0.5184492738831559 0.1554437490853277
        </DataArray>
      </Points>
      <Verts>
        <DataArray type="Int64" Name="connectivity" format="ascii">
0
1
2
3
4
5
6
7
8
9
10
11
12
13
14
15
16
17
18
19
20
21
22
23
24
25
26
27
28
29
30
31
32
33
34
35
36
37
38
39
40
41
42
43
44
45
46
47
48
49
50
51
52
53
54
55
56
57
58
59
60
61
62
63
64
65
66
67
68
69
70
71
72
73
74
75
76
77
78
79
80
81
82
83
84
85
86
87
88
89
90
91
92
93
94
95
96
97
98
99
        </DataArray>
                <DataArray type="Int64" Name="offsets" format="ascii">
1
2
3
4
5
6
7
8
9
10
11
12
13
14
15
16
17
18
19
20
21
22
23
24
25
26
27
28
29
30
31
32
33
34
35
36
37
38
39
40
41
42
43
44
45
46
47
48
49
50
51
52
53
54
55
56
57
58
59
60
61
62
63
64
65
66
67
68
69
70
71
72
73
74
75
76
77
78
79
80
81
82
83
84
85
86
87
88
89
90
91
92
93
94
95
96
97
98
99
100
        </DataArray>
      </Verts>
      <PointData>
        <DataArray type="Float32" Name="attr0" format="ascii">
0.9494255
0.2772013
0.3764421
0.5025018
0.6614359
0.8053668
0.3425626
0.8111961
0.8657068
0.5282862
0.2142366
0.2221354
0.6805948
0.877432
0.4984407
0.9601666
0.5306594
0.3657426
0.5150926
0.8040309
0.6808926
0.1279096
0.7173896
0.9772254
0.2721777
0.9261724
0.580568
0.3219828
0.4972493
0.9388732
0.8330092
0.7799672
0.725488
0.199308
0.09078119
0.8176525
0.1918074
0.9069242
0.8645669
0.6959521
0.68248
0.9797909
0.4915317
0.533063
0.08314063
0.2479446
0.3359151
0.02661425
0.9837726
0.523158
0.7392922
0.9149389
0.4549547
0.8200942
0.2860577
0.6762785
0.07053214
0.7765388
0.5910597
0.9984819
0.7357114
0.5609745
0.01588653
0.152219
0.9983656
0.8402412
0.05025113
0.0691992
0.5646343
0.4968847
0.4328401
0.8670856
0.5023472
0.07904536
0.546933
0.3385688
0.2200379
0.3198014
0.6724178
0.929235
0.5306052
0.6784477
0.2649488
0.1416481
0.9992921
0.6076466
0.625696
0.2597865
0.6593418
0.5274326
0.3000281
0.4729392
0.7189057
0.3125102
0.04781655
0.659605
0.2950812
0.8766288
0.9549252
0.1184959
        </DataArray>
        <DataArray type="Float32" Name="attr1" NumberOfComponents="3" format="ascii">
0.6571555733680725 0.6820341348648071 0.02518314495682716 
0.2500879764556885 0.6072337627410889 0.2638248205184937 
0.739673376083374 0.03901848196983337 0.1146077141165733 
0.1946695744991302 0.4017422497272491 0.4756999015808105 
0.4138168096542358 0.2947664856910706 0.681465208530426 
0.01565379463136196 0.6531890630722046 0.1037354543805122 
0.009091082960367203 0.6885247230529785 0.3157951235771179 
0.6670802235603333 0.03299479559063911 0.2624457180500031 
0.4348890781402588 0.1796943694353104 0.04217496514320374 
0.7585052847862244 0.171334519982338 0.6467452049255371 
0.9645077586174011 0.4471376538276672 0.03444629535079002 
0.7471956014633179 0.8639637231826782 0.9788803458213806 
0.6256622672080994 0.4756770431995392 0.6153318285942078 
0.09299211949110031 0.9505829811096191 0.672225296497345 
0.02645017392933369 0.3047248721122742 0.6745986938476562 
0.6686615347862244 0.1980326920747757 0.3493071794509888 
0.5113654732704163 0.7365903258323669 0.3312279880046844 
0.2149011045694351 0.9206470847129822 0.3027870655059814 
0.6241942048072815 0.1932476609945297 0.9030498862266541 
0.7328473329544067 0.7341872453689575 0.7744654417037964 
0.1221259757876396 0.6360638737678528 0.9787770509719849 
0.6331329345703125 0.1726812273263931 0.2966203689575195 
0.1376587897539139 0.4041770696640015 0.315169095993042 
0.421793520450592 0.7069469690322876 0.824834942817688 
0.7771146893501282 0.3693085908889771 0.9595526456832886 
0.1825391054153442 0.9074927568435669 0.2645595073699951 
0.6122758984565735 0.9233602285385132 0.3226791024208069 
0.2391253560781479 0.906687319278717 0.8127450942993164 
0.7996938824653625 0.2448921054601669 0.1226799786090851 
0.694895327091217 0.8715041279792786 0.1840956211090088 
0.6328094601631165 0.9330005645751953 0.9477300643920898 
0.4780030846595764 0.6106562614440918 0.5581955313682556 
0.5307729840278625 0.1758340746164322 0.618852972984314 
0.1414846777915955 0.4442451000213623 0.7473052144050598 
0.002604618668556213 0.4223945438861847 0.09507233649492264 
0.8733763098716736 0.003198110032826662 0.5546110868453979 
0.03937279433012009 0.4732107818126678 0.08701580762863159 
0.9865575432777405 0.5089138746261597 0.051934864372015 
0.5691947340965271 0.09125684946775436 0.2978953421115875 
0.5040035843849182 0.03460608795285225 0.5824763774871826 
0.8839712738990784 0.6903713941574097 0.1257193237543106 
0.7095029354095459 0.007746492512524128 0.349253386259079 
0.3546745479106903 0.2855701744556427 0.8213676810264587 
0.6497137546539307 0.3804705142974854 0.6583295464515686 
0.2404032498598099 0.3044949471950531 0.8414697051048279 
0.06023956462740898 0.4256887435913086 0.5739513635635376 
0.08292200416326523 0.593871533870697 0.2935190498828888 
0.664300262928009 0.9351239204406738 0.5054119229316711 
0.5935549736022949 0.9342896342277527 0.4497299790382385 
0.2333733588457108 0.6807889342308044 0.471148669719696 
0.1234190985560417 0.5410323739051819 0.9430184960365295 
0.8401625752449036 0.005623575765639544 0.5886363983154297 
0.05477363988757133 0.6431674957275391 0.612904965877533 
0.8251454830169678 0.6779215931892395 0.3178769648075104 
0.08200584352016449 0.5612475872039795 0.378754049539566 
0.05226698517799377 0.9559611678123474 0.8471713662147522 
0.732658863067627 0.6729628443717957 0.4703948199748993 
0.1089199706912041 0.1681100428104401 0.8346939086914062 
0.7545257210731506 0.4070000648498535 0.30427286028862 
0.1584199219942093 0.2442104667425156 0.3689626157283783 
0.7876780033111572 0.9506122469902039 0.2419425696134567 
0.2983574271202087 0.0246320441365242 0.2688349783420563 
0.8784769773483276 0.1859880685806274 0.2134706377983093 
0.06647206097841263 0.6497496366500854 0.886615514755249 
0.7378954291343689 0.3824079632759094 0.8949474096298218 
0.01188409514725208 0.7515271902084351 0.5734633207321167 
0.9520556330680847 0.4031108021736145 0.8746667504310608 
0.131470113992691 0.2520027458667755 0.5671915411949158 
0.5446678400039673 0.750556468963623 0.2583857476711273 
0.1194510757923126 0.3957681655883789 0.7933542132377625 
0.7972565293312073 0.8622832298278809 0.08557751774787903 
0.8995644450187683 0.5108648538589478 0.4872995615005493 
0.4745307564735413 0.325320690870285 0.3500612080097198 
0.8787894248962402 0.04352294653654099 0.3563389480113983 
0.6424902081489563 0.6458942294120789 0.3897269368171692 
0.9040027856826782 0.1083123683929443 0.8498001098632812 
0.1746324896812439 0.4942397475242615 0.01067389268428087 
0.896801769733429 0.1641474515199661 0.994819700717926 
0.2753380835056305 0.4863718450069427 0.3209052085876465 
0.7172846794128418 0.101265124976635 0.3932985961437225 
0.4998421967029572 0.1600086241960526 0.7180233597755432 
0.8022973537445068 0.7690542340278625 0.4964640438556671 
0.07587800920009613 0.3023942708969116 0.8214589357376099 
0.2516842186450958 0.9435696601867676 0.2254731953144073 
0.478271096944809 0.03163601830601692 0.9558008313179016 
0.7636690735816956 0.8216108679771423 0.78907310962677 
0.8823415637016296 0.7281975746154785 0.5560091733932495 
0.7622165083885193 0.05964188277721405 0.5395310521125793 
0.2364097982645035 0.8452150821685791 0.04726692661643028 
0.9214244484901428 0.9220276474952698 0.9364806413650513 
0.5443351268768311 0.2213664948940277 0.7469722032546997 
0.4354780316352844 0.1825771182775497 0.2117585688829422 
0.9702302813529968 0.8693584203720093 0.8253592848777771 
0.9114904403686523 0.4594842791557312 0.9703609943389893 
0.4671776294708252 0.3614567518234253 0.7826351523399353 
0.6553133726119995 0.2516477704048157 0.9395176768302917 
0.1940754950046539 0.6297088265419006 0.3234435319900513 
0.5203979015350342 0.9548757076263428 0.6692056655883789 
0.7684593200683594 0.3030602931976318 0.96809321641922 
0.9957742094993591 0.7807062268257141 0.01375700905919075 
        </DataArray>
        <DataArray type="Float32" Name="domain" format="ascii">
1.0
1.0
1.0
1.0
1.0
1.0
1.0
1.0
1.0
1.0
1.0
1.0
1.0
1.0
1.0
1.0
1.0
1.0
1.0
1.0
1.0
1.0
1.0
1.0
1.0
1.0
1.0
1.0
1.0
1.0
1.0
1.0
1.0
1.0
1.0
1.0
1.0
1.0
1.0
1.0
1.0
1.0
1.0
1.0
1.0
1.0
1.0
1.0
1.0
1.0
1.0
1.0
1.0
1.0
1.0
1.0
1.0
1.0
1.0
1.0
1.0
1.0
1.0
1.0
1.0
1.0
1.0
1.0
1.0
1.0
1.0
1.0
1.0
1.0
1.0
0.0
0.0
0.0
0.0
0.0
0.0
0.0
0.0
0.0
0.0
0.0
0.0
0.0
0.0
0.0
0.0
0.0
0.0
0.0
0.0
0.0
0.0
0.0
0.0
0.0
        </DataArray>
      </PointData>
    </Piece>
  </PolyData>
</VTKFile>