<VTKFile type="PolyData" version="1.0" byte_order="LittleEndian" header_type="UInt64">
  <PolyData>
    <Piece NumberOfPoints="100" NumberOfVerts="100">
      <Points>
        <DataArray type="Float64" Name="Points" NumberOfComponents="3" format="ascii">
0.191120 0.542772 0.939108
0.933523 0.710147 0.682257
0.228446 0.513097 0.438905
0.700754 0.436179 0.434735
0.751419 0.522504 0.196855
0.666369 0.261523 0.050127
0.573708 0.768383 0.022587
0.750211 0.313137 0.190846
0.507718 0.273360 0.264172
0.670213 0.932599 0.212948
0.586036 0.006718 0.574775
0.336361 0.205412 0.440432
0.553825 0.740555 0.064820
0.764503 0.468990 0.878126
0.323438 0.181610 0.943831
0.329992 0.043079 0.688576
0.095793 0.009830 0.801123
0.349360 0.212307 0.266992
0.368002 0.414173 0.890974
0.471037 0.198481 0.584590
0.363141 0.971788 0.567570
0.193627 0.047362 0.347666
0.078823 0.824102 0.303324
0.892978 0.147594 0.589520
0.768770 0.021556 0.879563
0.173734 0.131239 0.179741
0.392798 0.563805 0.325374
0.241990 0.120892 0.993650
0.950192 0.297734 0.372967
0.618250 0.020735 0.852418
0.507541 0.634685 0.435244
0.857826 0.812930 0.263612
0.905927 0.426169 0.242918
0.551551 0.826687 0.394286
0.107476 0.018033 0.122876
0.027658 0.315680 0.861391
0.864926 0.042390 0.667640
0.937087 0.686836 0.209923
0.960032 0.214003 0.456393
0.838234 0.705078 0.379994
0.743514 0.670946 0.671558
0.434425 0.879627 0.032296
0.954834 0.877288 0.061284
0.239914 0.979709 0.690876
0.334337 0.292961 0.194138
0.397971 0.064623 0.159310
0.639743 0.559217 0.628284
0.319393 0.698422 0.808751
0.534981 0.605794 0.215716
0.932453 0.633508 0.954549
0.860046 0.170877 0.901505
0.581338 0.696935 0.013719
0.273513 0.037100 0.801600
0.857205 0.467507 0.627542
0.752721 0.974119 0.427029
0.371101 0.245019 0.119228
0.733240 0.911167 0.240259
0.659184 0.906727 0.920069
0.723200 0.826380 0.620956
0.665010 0.286470 0.644219
0.550957 0.831365 0.249487
0.136109 0.843937 0.995786
0.958540 0.434625 0.812213
0.025767 0.297417 0.212592
0.956965 0.060432 0.382506
0.647490 0.425935 0.083679
0.492244 0.694858 0.917290
0.595547 0.101746 0.165874
0.715210 0.552892 0.556047
0.727179 0.190203 0.479701
0.452899 0.191989 0.800239
0.189775 0.575804 0.255534
0.787141 0.426864 0.467209
0.674216 0.630124 0.240190
0.921028 0.344758 0.550895
0.051571 0.205424 0.679874
0.450943 0.397533 0.256193
0.520349 0.229449 0.854270
0.444768 0.451041 0.509270
0.033064 0.374076 0.800554
0.524198 0.393980 0.552048
0.743037 0.632495 0.584216
0.264430 0.570424 0.532054
0.538226 0.023322 0.450331
0.513191 0.768138 0.952403
0.790408 0.301653 0.043437
0.328417 0.622360 0.766373
0.186272 0.564519 0.339561
0.251027 0.787802 0.694365
0.045131 0.074015 0.734981
0.066324 0.363983 0.337433
0.129496 0.763412 0.395678
0.451936 0.568539 0.719855
0.084249 0.651408 0.904191
0.484451 0.939076 0.217938
0.355350 0.994250 0.900963
0.195476 0.033896 0.116821
0.772962 0.692030 0.614234
0.727780 0.125820 0.608612
0.602774 0.518449 0.155444
        </DataArray>
      </Points>
      <Verts>
        <DataArray type="Int64" Name="connectivity" format="ascii">
0
1
2
3
4
5
6
7
8
9
10
11
12
13
14
15
16
17
18
19
20
21
22
23
24
25
26
27
28
29
30
31
32
33
34
35
36
37
38
39
40
41
42
43
44
45
46
47
48
49
50
51
52
53
54
55
56
57
58
59
60
61
62
63
64
65
66
67
68
69
70
71
72
73
74
75
76
77
78
79
80
81
82
83
84
85
86
87
88
89
90
91
92
93
94
95
96
97
98
99
        </DataArray>
                <DataArray type="Int64" Name="offsets" format="ascii">
1
2
3
4
5
6
7
8
9
10
11
12
13
14
15
16
17
18
19
20
21
22
23
24
25
26
27
28
29
30
31
32
33
34
35
36
37
38
39
40
41
42
43
44
45
46
47
48
49
50
51
52
53
54
55
56
57
58
59
60
61
62
63
64
65
66
67
68
69
70
71
72
73
74
75
76
77
78
79
80
81
82
83
84
85
86
87
88
89
90
91
92
93
94
95
96
97
98
99
100
        </DataArray>
      </Verts>
      <PointData>
        <DataArray type="Float32" Name="attr0" format="ascii">
0.949426
0.277201
0.376442
0.502502
0.661436
0.805367
0.342563
0.811196
0.865707
0.528286
0.214237
0.222135
0.680595
0.877432
0.498441
0.960167
0.530659
0.365743
0.515093
0.804031
0.680893
0.127910
0.717390
0.977225
0.272178
0.926172
0.580568
0.321983
0.497249
0.938873
0.833009
0.779967
0.725488
0.199308
0.090781
0.817653
0.191807
0.906924
0.864567
0.695952
0.682480
0.979791
0.491532
0.533063
0.083141
0.247945
0.335915
0.026614
0.983773
0.523158
0.739292
0.914939
0.454955
0.820094
0.286058
0.676279
0.070532
0.776539
0.591060
0.998482
0.735711
0.560975
0.015887
0.152219
0.998366
0.840241
0.050251
0.069199
0.564634
0.496885
0.432840
0.867086
0.502347
0.079045
0.546933
0.338569
0.220038
0.319801
0.672418
0.929235
0.530605
0.678448
0.264949
0.141648
0.999292
0.607647
0.625696
0.259787
0.659342
0.527433
0.300028
0.472939
0.718906
0.312510
0.047817
0.659605
0.295081
0.876629
0.954925
0.118496
        </DataArray>
        <DataArray type="Float32" Name="attr1" NumberOfComponents="3" format="ascii">
0.657156 0.682034 0.025183 
0.250088 0.607234 0.263825 
0.739673 0.039018 0.114608 
0.194670 0.401742 0.475700 
0.413817 0.294766 0.681465 
0.015654 0.653189 0.103735 
0.009091 0.688525 0.315795 
0.667080 0.032995 0.262446 
0.434889 0.179694 0.042175 
0.758505 0.171335 0.646745 
0.964508 0.447138 0.034446 
0.747196 0.863964 0.978880 
0.625662 0.475677 0.615332 
0.092992 0.950583 0.672225 
0.026450 0.304725 0.674599 
0.668662 0.198033 0.349307 
0.511365 0.736590 0.331228 
0.214901 0.920647 0.302787 
0.624194 0.193248 0.903050 
0.732847 0.734187 0.774465 
0.122126 0.636064 0.978777 
0.633133 0.172681 0.296620 
0.137659 0.404177 0.315169 
0.421794 0.706947 0.824835 
0.777115 0.369309 0.959553 
0.182539 0.907493 0.264560 
0.612276 0.923360 0.322679 
0.239125 0.906687 0.812745 
0.799694 0.244892 0.122680 
0.694895 0.871504 0.184096 
0.632809 0.933001 0.947730 
0.478003 0.610656 0.558196 
0.530773 0.175834 0.618853 
0.141485 0.444245 0.747305 
0.002605 0.422395 0.095072 
0.873376 0.003198 0.554611 
0.039373 0.473211 0.087016 
0.986558 0.508914 0.051935 
0.569195 0.091257 0.297895 
0.504004 0.034606 0.582476 
0.883971 0.690371 0.125719 
0.709503 0.007746 0.349253 
0.354675 0.285570 0.821368 
0.649714 0.380471 0.658330 
0.240403 0.304495 0.841470 
0.060240 0.425689 0.573951 
0.082922 0.593872 0.293519 
0.664300 0.935124 0.505412 
0.593555 0.934290 0.449730 
0.233373 0.680789 0.471149 
0.123419 0.541032 0.943018 
0.840163 0.005624 0.588636 
0.054774 0.643167 0.612905 
0.825145 0.677922 0.317877 
0.082006 0.561248 0.378754 
0.052267 0.955961 0.847171 
0.732659 0.672963 0.470395 
0.108920 0.168110 0.834694 
0.754526 0.407000 0.304273 
0.158420 0.244210 0.368963 
0.787678 0.950612 0.241943 
0.298357 0.024632 0.268835 
0.878477 0.185988 0.213471 
0.066472 0.649750 0.886616 
0.737895 0.382408 0.894947 
0.011884 0.751527 0.573463 
0.952056 0.403111 0.874667 
0.131470 0.252003 0.567192 
0.544668 0.750556 0.258386 
0.119451 0.395768 0.793354 
0.797257 0.862283 0.085578 
0.899564 0.510865 0.487300 
0.474531 0.325321 0.350061 
0.878789 0.043523 0.356339 
0.642490 0.645894 0.389727 
0.904003 0.108312 0.849800 
0.174632 0.494240 0.010674 
0.896802 0.164147 0.994820 
0.275338 0.486372 0.320905 
0.717285 0.101265 0.393299 
0.499842 0.160009 0.718023 
0.802297 0.769054 0.496464 
0.075878 0.302394 0.821459 
0.251684 0.943570 0.225473 
0.478271 0.031636 0.955801 
0.763669 0.821611 0.789073 
0.882342 0.728198 0.556009 
0.762217 0.059642 0.539531 
0.236410 0.845215 0.047267 
0.921424 0.922028 0.936481 
0.544335 0.221366 0.746972 
0.435478 0.182577 0.211759 
0.970230 0.869358 0.825359 
0.911490 0.459484 0.970361 
0.467178 0.361457 0.782635 
0.655313 0.251648 0.939518 
0.194075 0.629709 0.323444 
0.520398 0.954876 0.669206 
0.768459 0.303060 0.968093 
0.995774 0.780706 0.013757 
        </DataArray>
        <DataArray type="Float32" Name="domain" format="ascii">
1.0
1.0
1.0
1.0
1.0
1.0
1.0
1.0
1.0
1.0
1.0
1.0
1.0
1.0
1.0
1.0
1.0
1.0
1.0
1.0
1.0
1.0
1.0
1.0
1.0
1.0
1.0
1.0
1.0
1.0
1.0
1.0
1.0
1.0
1.0
1.0
1.0
1.0
1.0
1.0
1.0
1.0
1.0
1.0
1.0
1.0
1.0
1.0
1.0
1.0
1.0
1.0
1.0
1.0
1.0
1.0
1.0
1.0
1.0
1.0
1.0
1.0
1.0
1.0
1.0
1.0
1.0
1.0
1.0
1.0
1.0
1.0
1.0
1.0
1.0
0.0
0.0
0.0
0.0
0.0
0.0
0.0
0.0
0.0
0.0
0.0
0.0
0.0
0.0
0.0
0.0
0.0
0.0
0.0
0.0
0.0
0.0
0.0
0.0
0.0
        </DataArray>
      </PointData>
    </Piece>
  </PolyData>
</VTKFile>