# vtk DataFile Version 3.0
grids
ASCII
DATASET POLYDATA
POINTS 1024 float
0 0 0.0
0.1 0 0.0
0.2 0 0.0
0.3 0 0.0
0.4 0 0.0
0.5 0 0.0
0.6 0 0.0
0.7 0 0.0
0.8 0 0.0
0.9 0 0.0
1 0 0.0
1.1 0 0.0
1.2 0 0.0
1.3 0 0.0
1.4 0 0.0
1.5 0 0.0
0 0.2 0.0
0.1 0.2 0.0
0.2 0.2 0.0
0.3 0.2 0.0
0.4 0.2 0.0
0.5 0.2 0.0
0.6 0.2 0.0
0.7 0.2 0.0
0.8 0.2 0.0
0.9 0.2 0.0
1 0.2 0.0
1.1 0.2 0.0
1.2 0.2 0.0
1.3 0.2 0.0
1.4 0.2 0.0
1.5 0.2 0.0
0 0.4 0.0
0.1 0.4 0.0
0.2 0.4 0.0
0.3 0.4 0.0
0.4 0.4 0.0
0.5 0.4 0.0
0.6 0.4 0.0
0.7 0.4 0.0
0.8 0.4 0.0
0.9 0.4 0.0
1 0.4 0.0
1.1 0.4 0.0
1.2 0.4 0.0
1.3 0.4 0.0
1.4 0.4 0.0
1.5 0.4 0.0
0 0.6 0.0
0.1 0.6 0.0
0.2 0.6 0.0
0.3 0.6 0.0
0.4 0.6 0.0
0.5 0.6 0.0
0.6 0.6 0.0
0.7 0.6 0.0
0.8 0.6 0.0
0.9 0.6 0.0
1 0.6 0.0
1.1 0.6 0.0
1.2 0.6 0.0
1.3 0.6 0.0
1.4 0.6 0.0
1.5 0.6 0.0
0 0.8 0.0
0.1 0.8 0.0
0.2 0.8 0.0
0.3 0.8 0.0
0.4 0.8 0.0
0.5 0.8 0.0
0.6 0.8 0.0
0.7 0.8 0.0
0.8 0.8 0.0
0.9 0.8 0.0
1 0.8 0.0
1.1 0.8 0.0
1.2 0.8 0.0
1.3 0.8 0.0
1.4 0.8 0.0
1.5 0.8 0.0
0 1 0.0
0.1 1 0.0
0.2 1 0.0
0.3 1 0.0
0.4 1 0.0
0.5 1 0.0
0.6 1 0.0
0.7 1 0.0
0.8 1 0.0
0.9 1 0.0
1 1 0.0
1.1 1 0.0
1.2 1 0.0
1.3 1 0.0
1.4 1 0.0
1.5 1 0.0
0 1.2 0.0
0.1 1.2 0.0
0.2 1.2 0.0
0.3 1.2 0.0
0.4 1.2 0.0
0.5 1.2 0.0
0.6 1.2 0.0
0.7 1.2 0.0
0.8 1.2 0.0
0.9 1.2 0.0
1 1.2 0.0
1.1 1.2 0.0
1.2 1.2 0.0
1.3 1.2 0.0
1.4 1.2 0.0
1.5 1.2 0.0
0 1.4 0.0
0.1 1.4 0.0
0.2 1.4 0.0
0.3 1.4 0.0
0.4 1.4 0.0
0.5 1.4 0.0
0.6 1.4 0.0
0.7 1.4 0.0
0.8 1.4 0.0
0.9 1.4 0.0
1 1.4 0.0
1.1 1.4 0.0
1.2 1.4 0.0
1.3 1.4 0.0
1.4 1.4 0.0
1.5 1.4 0.0
0 1.6 0.0
0.1 1.6 0.0
0.2 1.6 0.0
0.3 1.6 0.0
0.4 1.6 0.0
0.5 1.6 0.0
0.6 1.6 0.0
0.7 1.6 0.0
0.8 1.6 0.0
0.9 1.6 0.0
1 1.6 0.0
1.1 1.6 0.0
1.2 1.6 0.0
1.3 1.6 0.0
1.4 1.6 0.0
1.5 1.6 0.0
0 1.8 0.0
0.1 1.8 0.0
0.2 1.8 0.0
0.3 1.8 0.0
0.4 1.8 0.0
0.5 1.8 0.0
0.6 1.8 0.0
0.7 1.8 0.0
0.8 1.8 0.0
0.9 1.8 0.0
1 1.8 0.0
1.1 1.8 0.0
1.2 1.8 0.0
1.3 1.8 0.0
1.4 1.8 0.0
1.5 1.8 0.0
0 2 0.0
0.1 2 0.0
0.2 2 0.0
0.3 2 0.0
0.4 2 0.0
0.5 2 0.0
0.6 2 0.0
0.7 2 0.0
0.8 2 0.0
0.9 2 0.0
1 2 0.0
1.1 2 0.0
1.2 2 0.0
1.3 2 0.0
1.4 2 0.0
1.5 2 0.0
0 2.2 0.0
0.1 2.2 0.0
0.2 2.2 0.0
0.3 2.2 0.0
0.4 2.2 0.0
0.5 2.2 0.0
0.6 2.2 0.0
0.7 2.2 0.0
0.8 2.2 0.0
0.9 2.2 0.0
1 2.2 0.0
1.1 2.2 0.0
1.2 2.2 0.0
1.3 2.2 0.0
1.4 2.2 0.0
1.5 2.2 0.0
0 2.4 0.0
0.1 2.4 0.0
0.2 2.4 0.0
0.3 2.4 0.0
0.4 2.4 0.0
0.5 2.4 0.0
0.6 2.4 0.0
0.7 2.4 0.0
0.8 2.4 0.0
0.9 2.4 0.0
1 2.4 0.0
1.1 2.4 0.0
1.2 2.4 0.0
1.3 2.4 0.0
1.4 2.4 0.0
1.5 2.4 0.0
0 2.6 0.0
0.1 2.6 0.0
0.2 2.6 0.0
0.3 2.6 0.0
0.4 2.6 0.0
0.5 2.6 0.0
0.6 2.6 0.0
0.7 2.6 0.0
0.8 2.6 0.0
0.9 2.6 0.0
1 2.6 0.0
1.1 2.6 0.0
1.2 2.6 0.0
1.3 2.6 0.0
1.4 2.6 0.0
1.5 2.6 0.0
0 2.8 0.0
0.1 2.8 0.0
0.2 2.8 0.0
0.3 2.8 0.0
0.4 2.8 0.0
0.5 2.8 0.0
0.6 2.8 0.0
0.7 2.8 0.0
0.8 2.8 0.0
0.9 2.8 0.0
1 2.8 0.0
1.1 2.8 0.0
1.2 2.8 0.0
1.3 2.8 0.0
1.4 2.8 0.0
1.5 2.8 0.0
0 3 0.0
0.1 3 0.0
0.2 3 0.0
0.3 3 0.0
0.4 3 0.0
0.5 3 0.0
0.6 3 0.0
0.7 3 0.0
0.8 3 0.0
0.9 3 0.0
1 3 0.0
1.1 3 0.0
1.2 3 0.0
1.3 3 0.0
1.4 3 0.0
1.5 3 0.0
5 7 0.0
5.2 7 0.0
5.4 7 0.0
5.6 7 0.0
5.8 7 0.0
6 7 0.0
6.2 7 0.0
6.4 7 0.0
6.6 7 0.0
6.8 7 0.0
7 7 0.0
7.2 7 0.0
7.4 7 0.0
7.6 7 0.0
7.8 7 0.0
8 7 0.0
5 7.1 0.0
5.2 7.1 0.0
5.4 7.1 0.0
5.6 7.1 0.0
5.8 7.1 0.0
6 7.1 0.0
6.2 7.1 0.0
6.4 7.1 0.0
6.6 7.1 0.0
6.8 7.1 0.0
7 7.1 0.0
7.2 7.1 0.0
7.4 7.1 0.0
7.6 7.1 0.0
7.8 7.1 0.0
8 7.1 0.0
5 7.2 0.0
5.2 7.2 0.0
5.4 7.2 0.0
5.6 7.2 0.0
5.8 7.2 0.0
6 7.2 0.0
6.2 7.2 0.0
6.4 7.2 0.0
6.6 7.2 0.0
6.8 7.2 0.0
7 7.2 0.0
7.2 7.2 0.0
7.4 7.2 0.0
7.6 7.2 0.0
7.8 7.2 0.0
8 7.2 0.0
5 7.3 0.0
5.2 7.3 0.0
5.4 7.3 0.0
5.6 7.3 0.0
5.8 7.3 0.0
6 7.3 0.0
6.2 7.3 0.0
6.4 7.3 0.0
6.6 7.3 0.0
6.8 7.3 0.0
7 7.3 0.0
7.2 7.3 0.0
7.4 7.3 0.0
7.6 7.3 0.0
7.8 7.3 0.0
8 7.3 0.0
5 7.4 0.0
5.2 7.4 0.0
5.4 7.4 0.0
5.6 7.4 0.0
5.8 7.4 0.0
6 7.4 0.0
6.2 7.4 0.0
6.4 7.4 0.0
6.6 7.4 0.0
6.8 7.4 0.0
7 7.4 0.0
7.2 7.4 0.0
7.4 7.4 0.0
7.6 7.4 0.0
7.8 7.4 0.0
8 7.4 0.0
5 7.5 0.0
5.2 7.5 0.0
5.4 7.5 0.0
5.6 7.5 0.0
5.8 7.5 0.0
6 7.5 0.0
6.2 7.5 0.0
6.4 7.5 0.0
6.6 7.5 0.0
6.8 7.5 0.0
7 7.5 0.0
7.2 7.5 0.0
7.4 7.5 0.0
7.6 7.5 0.0
7.8 7.5 0.0
8 7.5 0.0
5 7.6 0.0
5.2 7.6 0.0
5.4 7.6 0.0
5.6 7.6 0.0
5.8 7.6 0.0
6 7.6 0.0
6.2 7.6 0.0
6.4 7.6 0.0
6.6 7.6 0.0
6.8 7.6 0.0
7 7.6 0.0
7.2 7.6 0.0
7.4 7.6 0.0
7.6 7.6 0.0
7.8 7.6 0.0
8 7.6 0.0
5 7.7 0.0
5.2 7.7 0.0
5.4 7.7 0.0
5.6 7.7 0.0
5.8 7.7 0.0
6 7.7 0.0
6.2 7.7 0.0
6.4 7.7 0.0
6.6 7.7 0.0
6.8 7.7 0.0
7 7.7 0.0
7.2 7.7 0.0
7.4 7.7 0.0
7.6 7.7 0.0
7.8 7.7 0.0
8 7.7 0.0
5 7.8 0.0
5.2 7.8 0.0
5.4 7.8 0.0
5.6 7.8 0.0
5.8 7.8 0.0
6 7.8 0.0
6.2 7.8 0.0
6.4 7.8 0.0
6.6 7.8 0.0
6.8 7.8 0.0
7 7.8 0.0
7.2 7.8 0.0
7.4 7.8 0.0
7.6 7.8 0.0
7.8 7.8 0.0
8 7.8 0.0
5 7.9 0.0
5.2 7.9 0.0
5.4 7.9 0.0
5.6 7.9 0.0
5.8 7.9 0.0
6 7.9 0.0
6.2 7.9 0.0
6.4 7.9 0.0
6.6 7.9 0.0
6.8 7.9 0.0
7 7.9 0.0
7.2 7.9 0.0
7.4 7.9 0.0
7.6 7.9 0.0
7.8 7.9 0.0
8 7.9 0.0
5 8 0.0
5.2 8 0.0
5.4 8 0.0
5.6 8 0.0
5.8 8 0.0
6 8 0.0
6.2 8 0.0
6.4 8 0.0
6.6 8 0.0
6.8 8 0.0
7 8 0.0
7.2 8 0.0
7.4 8 0.0
7.6 8 0.0
7.8 8 0.0
8 8 0.0
5 8.1 0.0
5.2 8.1 0.0
5.4 8.1 0.0
5.6 8.1 0.0
5.8 8.1 0.0
6 8.1 0.0
6.2 8.1 0.0
6.4 8.1 0.0
6.6 8.1 0.0
6.8 8.1 0.0
7 8.1 0.0
7.2 8.1 0.0
7.4 8.1 0.0
7.6 8.1 0.0
7.8 8.1 0.0
8 8.1 0.0
5 8.2 0.0
5.2 8.2 0.0
5.4 8.2 0.0
5.6 8.2 0.0
5.8 8.2 0.0
6 8.2 0.0
6.2 8.2 0.0
6.4 8.2 0.0
6.6 8.2 0.0
6.8 8.2 0.0
7 8.2 0.0
7.2 8.2 0.0
7.4 8.2 0.0
7.6 8.2 0.0
7.8 8.2 0.0
8 8.2 0.0
5 8.3 0.0
5.2 8.3 0.0
5.4 8.3 0.0
5.6 8.3 0.0
5.8 8.3 0.0
6 8.3 0.0
6.2 8.3 0.0
6.4 8.3 0.0
6.6 8.3 0.0
6.8 8.3 0.0
7 8.3 0.0
7.2 8.3 0.0
7.4 8.3 0.0
7.6 8.3 0.0
7.8 8.3 0.0
8 8.3 0.0
5 8.4 0.0
5.2 8.4 0.0
5.4 8.4 0.0
5.6 8.4 0.0
5.8 8.4 0.0
6 8.4 0.0
6.2 8.4 0.0
6.4 8.4 0.0
6.6 8.4 0.0
6.8 8.4 0.0
7 8.4 0.0
7.2 8.4 0.0
7.4 8.4 0.0
7.6 8.4 0.0
7.8 8.4 0.0
8 8.4 0.0
5 8.5 0.0
5.2 8.5 0.0
5.4 8.5 0.0
5.6 8.5 0.0
5.8 8.5 0.0
6 8.5 0.0
6.2 8.5 0.0
6.4 8.5 0.0
6.6 8.5 0.0
6.8 8.5 0.0
7 8.5 0.0
7.2 8.5 0.0
7.4 8.5 0.0
7.6 8.5 0.0
7.8 8.5 0.0
8 8.5 0.0
0 7 0.0
0.05 7 0.0
0.1 7 0.0
0.15 7 0.0
0.2 7 0.0
0.25 7 0.0
0.3 7 0.0
0.35 7 0.0
0.4 7 0.0
0.45 7 0.0
0.5 7 0.0
0.55 7 0.0
0.6 7 0.0
0.65 7 0.0
0.7 7 0.0
0.75 7 0.0
0 7.07 0.0
0.05 7.07 0.0
0.1 7.07 0.0
0.15 7.07 0.0
0.2 7.07 0.0
0.25 7.07 0.0
0.3 7.07 0.0
0.35 7.07 0.0
0.4 7.07 0.0
0.45 7.07 0.0
0.5 7.07 0.0
0.55 7.07 0.0
0.6 7.07 0.0
0.65 7.07 0.0
0.7 7.07 0.0
0.75 7.07 0.0
0 7.14 0.0
0.05 7.14 0.0
0.1 7.14 0.0
0.15 7.14 0.0
0.2 7.14 0.0
0.25 7.14 0.0
0.3 7.14 0.0
0.35 7.14 0.0
0.4 7.14 0.0
0.45 7.14 0.0
0.5 7.14 0.0
0.55 7.14 0.0
0.6 7.14 0.0
0.65 7.14 0.0
0.7 7.14 0.0
0.75 7.14 0.0
0 7.21 0.0
0.05 7.21 0.0
0.1 7.21 0.0
0.15 7.21 0.0
0.2 7.21 0.0
0.25 7.21 0.0
0.3 7.21 0.0
0.35 7.21 0.0
0.4 7.21 0.0
0.45 7.21 0.0
0.5 7.21 0.0
0.55 7.21 0.0
0.6 7.21 0.0
0.65 7.21 0.0
0.7 7.21 0.0
0.75 7.21 0.0
0 7.28 0.0
0.05 7.28 0.0
0.1 7.28 0.0
0.15 7.28 0.0
0.2 7.28 0.0
0.25 7.28 0.0
0.3 7.28 0.0
0.35 7.28 0.0
0.4 7.28 0.0
0.45 7.28 0.0
0.5 7.28 0.0
0.55 7.28 0.0
0.6 7.28 0.0
0.65 7.28 0.0
0.7 7.28 0.0
0.75 7.28 0.0
0 7.35 0.0
0.05 7.35 0.0
0.1 7.35 0.0
0.15 7.35 0.0
0.2 7.35 0.0
0.25 7.35 0.0
0.3 7.35 0.0
0.35 7.35 0.0
0.4 7.35 0.0
0.45 7.35 0.0
0.5 7.35 0.0
0.55 7.35 0.0
0.6 7.35 0.0
0.65 7.35 0.0
0.7 7.35 0.0
0.75 7.35 0.0
0 7.42 0.0
0.05 7.42 0.0
0.1 7.42 0.0
0.15 7.42 0.0
0.2 7.42 0.0
0.25 7.42 0.0
0.3 7.42 0.0
0.35 7.42 0.0
0.4 7.42 0.0
0.45 7.42 0.0
0.5 7.42 0.0
0.55 7.42 0.0
0.6 7.42 0.0
0.65 7.42 0.0
0.7 7.42 0.0
0.75 7.42 0.0
0 7.49 0.0
0.05 7.49 0.0
0.1 7.49 0.0
0.15 7.49 0.0
0.2 7.49 0.0
0.25 7.49 0.0
0.3 7.49 0.0
0.35 7.49 0.0
0.4 7.49 0.0
0.45 7.49 0.0
0.5 7.49 0.0
0.55 7.49 0.0
0.6 7.49 0.0
0.65 7.49 0.0
0.7 7.49 0.0
0.75 7.49 0.0
0 7.56 0.0
0.05 7.56 0.0
0.1 7.56 0.0
0.15 7.56 0.0
0.2 7.56 0.0
0.25 7.56 0.0
0.3 7.56 0.0
0.35 7.56 0.0
0.4 7.56 0.0
0.45 7.56 0.0
0.5 7.56 0.0
0.55 7.56 0.0
0.6 7.56 0.0
0.65 7.56 0.0
0.7 7.56 0.0
0.75 7.56 0.0
0 7.63 0.0
0.05 7.63 0.0
0.1 7.63 0.0
0.15 7.63 0.0
0.2 7.63 0.0
0.25 7.63 0.0
0.3 7.63 0.0
0.35 7.63 0.0
0.4 7.63 0.0
0.45 7.63 0.0
0.5 7.63 0.0
0.55 7.63 0.0
0.6 7.63 0.0
0.65 7.63 0.0
0.7 7.63 0.0
0.75 7.63 0.0
0 7.7 0.0
0.05 7.7 0.0
0.1 7.7 0.0
0.15 7.7 0.0
0.2 7.7 0.0
0.25 7.7 0.0
0.3 7.7 0.0
0.35 7.7 0.0
0.4 7.7 0.0
0.45 7.7 0.0
0.5 7.7 0.0
0.55 7.7 0.0
0.6 7.7 0.0
0.65 7.7 0.0
0.7 7.7 0.0
0.75 7.7 0.0
0 7.77 0.0
0.05 7.77 0.0
0.1 7.77 0.0
0.15 7.77 0.0
0.2 7.77 0.0
0.25 7.77 0.0
0.3 7.77 0.0
0.35 7.77 0.0
0.4 7.77 0.0
0.45 7.77 0.0
0.5 7.77 0.0
0.55 7.77 0.0
0.6 7.77 0.0
0.65 7.77 0.0
0.7 7.77 0.0
0.75 7.77 0.0
0 7.84 0.0
0.05 7.84 0.0
0.1 7.84 0.0
0.15 7.84 0.0
0.2 7.84 0.0
0.25 7.84 0.0
0.3 7.84 0.0
0.35 7.84 0.0
0.4 7.84 0.0
0.45 7.84 0.0
0.5 7.84 0.0
0.55 7.84 0.0
0.6 7.84 0.0
0.65 7.84 0.0
0.7 7.84 0.0
0.75 7.84 0.0
0 7.91 0.0
0.05 7.91 0.0
0.1 7.91 0.0
0.15 7.91 0.0
0.2 7.91 0.0
0.25 7.91 0.0
0.3 7.91 0.0
0.35 7.91 0.0
0.4 7.91 0.0
0.45 7.91 0.0
0.5 7.91 0.0
0.55 7.91 0.0
0.6 7.91 0.0
0.65 7.91 0.0
0.7 7.91 0.0
0.75 7.91 0.0
0 7.98 0.0
0.05 7.98 0.0
0.1 7.98 0.0
0.15 7.98 0.0
0.2 7.98 0.0
0.25 7.98 0.0
0.3 7.98 0.0
0.35 7.98 0.0
0.4 7.98 0.0
0.45 7.98 0.0
0.5 7.98 0.0
0.55 7.98 0.0
0.6 7.98 0.0
0.65 7.98 0.0
0.7 7.98 0.0
0.75 7.98 0.0
0 8.05 0.0
0.05 8.05 0.0
0.1 8.05 0.0
0.15 8.05 0.0
0.2 8.05 0.0
0.25 8.05 0.0
0.3 8.05 0.0
0.35 8.05 0.0
0.4 8.05 0.0
0.45 8.05 0.0
0.5 8.05 0.0
0.55 8.05 0.0
0.6 8.05 0.0
0.65 8.05 0.0
0.7 8.05 0.0
0.75 8.05 0.0
5 0 0.0
5.1 0 0.0
5.2 0 0.0
5.3 0 0.0
5.4 0 0.0
5.5 0 0.0
5.6 0 0.0
5.7 0 0.0
5.8 0 0.0
5.9 0 0.0
6 0 0.0
6.1 0 0.0
6.2 0 0.0
6.3 0 0.0
6.4 0 0.0
6.5 0 0.0
5 0.1 0.0
5.1 0.1 0.0
5.2 0.1 0.0
5.3 0.1 0.0
5.4 0.1 0.0
5.5 0.1 0.0
5.6 0.1 0.0
5.7 0.1 0.0
5.8 0.1 0.0
5.9 0.1 0.0
6 0.1 0.0
6.1 0.1 0.0
6.2 0.1 0.0
6.3 0.1 0.0
6.4 0.1 0.0
6.5 0.1 0.0
5 0.2 0.0
5.1 0.2 0.0
5.2 0.2 0.0
5.3 0.2 0.0
5.4 0.2 0.0
5.5 0.2 0.0
5.6 0.2 0.0
5.7 0.2 0.0
5.8 0.2 0.0
5.9 0.2 0.0
6 0.2 0.0
6.1 0.2 0.0
6.2 0.2 0.0
6.3 0.2 0.0
6.4 0.2 0.0
6.5 0.2 0.0
5 0.3 0.0
5.1 0.3 0.0
5.2 0.3 0.0
5.3 0.3 0.0
5.4 0.3 0.0
5.5 0.3 0.0
5.6 0.3 0.0
5.7 0.3 0.0
5.8 0.3 0.0
5.9 0.3 0.0
6 0.3 0.0
6.1 0.3 0.0
6.2 0.3 0.0
6.3 0.3 0.0
6.4 0.3 0.0
6.5 0.3 0.0
5 0.4 0.0
5.1 0.4 0.0
5.2 0.4 0.0
5.3 0.4 0.0
5.4 0.4 0.0
5.5 0.4 0.0
5.6 0.4 0.0
5.7 0.4 0.0
5.8 0.4 0.0
5.9 0.4 0.0
6 0.4 0.0
6.1 0.4 0.0
6.2 0.4 0.0
6.3 0.4 0.0
6.4 0.4 0.0
6.5 0.4 0.0
5 0.5 0.0
5.1 0.5 0.0
5.2 0.5 0.0
5.3 0.5 0.0
5.4 0.5 0.0
5.5 0.5 0.0
5.6 0.5 0.0
5.7 0.5 0.0
5.8 0.5 0.0
5.9 0.5 0.0
6 0.5 0.0
6.1 0.5 0.0
6.2 0.5 0.0
6.3 0.5 0.0
6.4 0.5 0.0
6.5 0.5 0.0
5 0.6 0.0
5.1 0.6 0.0
5.2 0.6 0.0
5.3 0.6 0.0
5.4 0.6 0.0
5.5 0.6 0.0
5.6 0.6 0.0
5.7 0.6 0.0
5.8 0.6 0.0
5.9 0.6 0.0
6 0.6 0.0
6.1 0.6 0.0
6.2 0.6 0.0
6.3 0.6 0.0
6.4 0.6 0.0
6.5 0.6 0.0
5 0.7 0.0
5.1 0.7 0.0
5.2 0.7 0.0
5.3 0.7 0.0
5.4 0.7 0.0
5.5 0.7 0.0
5.6 0.7 0.0
5.7 0.7 0.0
5.8 0.7 0.0
5.9 0.7 0.0
6 0.7 0.0
6.1 0.7 0.0
6.2 0.7 0.0
6.3 0.7 0.0
6.4 0.7 0.0
6.5 0.7 0.0
5 0.8 0.0
5.1 0.8 0.0
5.2 0.8 0.0
5.3 0.8 0.0
5.4 0.8 0.0
5.5 0.8 0.0
5.6 0.8 0.0
5.7 0.8 0.0
5.8 0.8 0.0
5.9 0.8 0.0
6 0.8 0.0
6.1 0.8 0.0
6.2 0.8 0.0
6.3 0.8 0.0
6.4 0.8 0.0
6.5 0.8 0.0
5 0.9 0.0
5.1 0.9 0.0
5.2 0.9 0.0
5.3 0.9 0.0
5.4 0.9 0.0
5.5 0.9 0.0
5.6 0.9 0.0
5.7 0.9 0.0
5.8 0.9 0.0
5.9 0.9 0.0
6 0.9 0.0
6.1 0.9 0.0
6.2 0.9 0.0
6.3 0.9 0.0
6.4 0.9 0.0
6.5 0.9 0.0
5 1 0.0
5.1 1 0.0
5.2 1 0.0
5.3 1 0.0
5.4 1 0.0
5.5 1 0.0
5.6 1 0.0
5.7 1 0.0
5.8 1 0.0
5.9 1 0.0
6 1 0.0
6.1 1 0.0
6.2 1 0.0
6.3 1 0.0
6.4 1 0.0
6.5 1 0.0
5 1.1 0.0
5.1 1.1 0.0
5.2 1.1 0.0
5.3 1.1 0.0
5.4 1.1 0.0
5.5 1.1 0.0
5.6 1.1 0.0
5.7 1.1 0.0
5.8 1.1 0.0
5.9 1.1 0.0
6 1.1 0.0
6.1 1.1 0.0
6.2 1.1 0.0
6.3 1.1 0.0
6.4 1.1 0.0
6.5 1.1 0.0
5 1.2 0.0
5.1 1.2 0.0
5.2 1.2 0.0
5.3 1.2 0.0
5.4 1.2 0.0
5.5 1.2 0.0
5.6 1.2 0.0
5.7 1.2 0.0
5.8 1.2 0.0
5.9 1.2 0.0
6 1.2 0.0
6.1 1.2 0.0
6.2 1.2 0.0
6.3 1.2 0.0
6.4 1.2 0.0
6.5 1.2 0.0
5 1.3 0.0
5.1 1.3 0.0
5.2 1.3 0.0
5.3 1.3 0.0
5.4 1.3 0.0
5.5 1.3 0.0
5.6 1.3 0.0
5.7 1.3 0.0
5.8 1.3 0.0
5.9 1.3 0.0
6 1.3 0.0
6.1 1.3 0.0
6.2 1.3 0.0
6.3 1.3 0.0
6.4 1.3 0.0
6.5 1.3 0.0
5 1.4 0.0
5.1 1.4 0.0
5.2 1.4 0.0
5.3 1.4 0.0
5.4 1.4 0.0
5.5 1.4 0.0
5.6 1.4 0.0
5.7 1.4 0.0
5.8 1.4 0.0
5.9 1.4 0.0
6 1.4 0.0
6.1 1.4 0.0
6.2 1.4 0.0
6.3 1.4 0.0
6.4 1.4 0.0
6.5 1.4 0.0
5 1.5 0.0
5.1 1.5 0.0
5.2 1.5 0.0
5.3 1.5 0.0
5.4 1.5 0.0
5.5 1.5 0.0
5.6 1.5 0.0
5.7 1.5 0.0
5.8 1.5 0.0
5.9 1.5 0.0
6 1.5 0.0
6.1 1.5 0.0
6.2 1.5 0.0
6.3 1.5 0.0
6.4 1.5 0.0
6.5 1.5 0.0
VERTICES 1024 2048
1 0
1 1
1 2
1 3
1 4
1 5
1 6
1 7
1 8
1 9
1 10
1 11
1 12
1 13
1 14
1 15
1 16
1 17
1 18
1 19
1 20
1 21
1 22
1 23
1 24
1 25
1 26
1 27
1 28
1 29
1 30
1 31
1 32
1 33
1 34
1 35
1 36
1 37
1 38
1 39
1 40
1 41
1 42
1 43
1 44
1 45
1 46
1 47
1 48
1 49
1 50
1 51
1 52
1 53
1 54
1 55
1 56
1 57
1 58
1 59
1 60
1 61
1 62
1 63
1 64
1 65
1 66
1 67
1 68
1 69
1 70
1 71
1 72
1 73
1 74
1 75
1 76
1 77
1 78
1 79
1 80
1 81
1 82
1 83
1 84
1 85
1 86
1 87
1 88
1 89
1 90
1 91
1 92
1 93
1 94
1 95
1 96
1 97
1 98
1 99
1 100
1 101
1 102
1 103
1 104
1 105
1 106
1 107
1 108
1 109
1 110
1 111
1 112
1 113
1 114
1 115
1 116
1 117
1 118
1 119
1 120
1 121
1 122
1 123
1 124
1 125
1 126
1 127
1 128
1 129
1 130
1 131
1 132
1 133
1 134
1 135
1 136
1 137
1 138
1 139
1 140
1 141
1 142
1 143
1 144
1 145
1 146
1 147
1 148
1 149
1 150
1 151
1 152
1 153
1 154
1 155
1 156
1 157
1 158
1 159
1 160
1 161
1 162
1 163
1 164
1 165
1 166
1 167
1 168
1 169
1 170
1 171
1 172
1 173
1 174
1 175
1 176
1 177
1 178
1 179
1 180
1 181
1 182
1 183
1 184
1 185
1 186
1 187
1 188
1 189
1 190
1 191
1 192
1 193
1 194
1 195
1 196
1 197
1 198
1 199
1 200
1 201
1 202
1 203
1 204
1 205
1 206
1 207
1 208
1 209
1 210
1 211
1 212
1 213
1 214
1 215
1 216
1 217
1 218
1 219
1 220
1 221
1 222
1 223
1 224
1 225
1 226
1 227
1 228
1 229
1 230
1 231
1 232
1 233
1 234
1 235
1 236
1 237
1 238
1 239
1 240
1 241
1 242
1 243
1 244
1 245
1 246
1 247
1 248
1 249
1 250
1 251
1 252
1 253
1 254
1 255
1 256
1 257
1 258
1 259
1 260
1 261
1 262
1 263
1 264
1 265
1 266
1 267
1 268
1 269
1 270
1 271
1 272
1 273
1 274
1 275
1 276
1 277
1 278
1 279
1 280
1 281
1 282
1 283
1 284
1 285
1 286
1 287
1 288
1 289
1 290
1 291
1 292
1 293
1 294
1 295
1 296
1 297
1 298
1 299
1 300
1 301
1 302
1 303
1 304
1 305
1 306
1 307
1 308
1 309
1 310
1 311
1 312
1 313
1 314
1 315
1 316
1 317
1 318
1 319
1 320
1 321
1 322
1 323
1 324
1 325
1 326
1 327
1 328
1 329
1 330
1 331
1 332
1 333
1 334
1 335
1 336
1 337
1 338
1 339
1 340
1 341
1 342
1 343
1 344
1 345
1 346
1 347
1 348
1 349
1 350
1 351
1 352
1 353
1 354
1 355
1 356
1 357
1 358
1 359
1 360
1 361
1 362
1 363
1 364
1 365
1 366
1 367
1 368
1 369
1 370
1 371
1 372
1 373
1 374
1 375
1 376
1 377
1 378
1 379
1 380
1 381
1 382
1 383
1 384
1 385
1 386
1 387
1 388
1 389
1 390
1 391
1 392
1 393
1 394
1 395
1 396
1 397
1 398
1 399
1 400
1 401
1 402
1 403
1 404
1 405
1 406
1 407
1 408
1 409
1 410
1 411
1 412
1 413
1 414
1 415
1 416
1 417
1 418
1 419
1 420
1 421
1 422
1 423
1 424
1 425
1 426
1 427
1 428
1 429
1 430
1 431
1 432
1 433
1 434
1 435
1 436
1 437
1 438
1 439
1 440
1 441
1 442
1 443
1 444
1 445
1 446
1 447
1 448
1 449
1 450
1 451
1 452
1 453
1 454
1 455
1 456
1 457
1 458
1 459
1 460
1 461
1 462
1 463
1 464
1 465
1 466
1 467
1 468
1 469
1 470
1 471
1 472
1 473
1 474
1 475
1 476
1 477
1 478
1 479
1 480
1 481
1 482
1 483
1 484
1 485
1 486
1 487
1 488
1 489
1 490
1 491
1 492
1 493
1 494
1 495
1 496
1 497
1 498
1 499
1 500
1 501
1 502
1 503
1 504
1 505
1 506
1 507
1 508
1 509
1 510
1 511
1 512
1 513
1 514
1 515
1 516
1 517
1 518
1 519
1 520
1 521
1 522
1 523
1 524
1 525
1 526
1 527
1 528
1 529
1 530
1 531
1 532
1 533
1 534
1 535
1 536
1 537
1 538
1 539
1 540
1 541
1 542
1 543
1 544
1 545
1 546
1 547
1 548
1 549
1 550
1 551
1 552
1 553
1 554
1 555
1 556
1 557
1 558
1 559
1 560
1 561
1 562
1 563
1 564
1 565
1 566
1 567
1 568
1 569
1 570
1 571
1 572
1 573
1 574
1 575
1 576
1 577
1 578
1 579
1 580
1 581
1 582
1 583
1 584
1 585
1 586
1 587
1 588
1 589
1 590
1 591
1 592
1 593
1 594
1 595
1 596
1 597
1 598
1 599
1 600
1 601
1 602
1 603
1 604
1 605
1 606
1 607
1 608
1 609
1 610
1 611
1 612
1 613
1 614
1 615
1 616
1 617
1 618
1 619
1 620
1 621
1 622
1 623
1 624
1 625
1 626
1 627
1 628
1 629
1 630
1 631
1 632
1 633
1 634
1 635
1 636
1 637
1 638
1 639
1 640
1 641
1 642
1 643
1 644
1 645
1 646
1 647
1 648
1 649
1 650
1 651
1 652
1 653
1 654
1 655
1 656
1 657
1 658
1 659
1 660
1 661
1 662
1 663
1 664
1 665
1 666
1 667
1 668
1 669
1 670
1 671
1 672
1 673
1 674
1 675
1 676
1 677
1 678
1 679
1 680
1 681
1 682
1 683
1 684
1 685
1 686
1 687
1 688
1 689
1 690
1 691
1 692
1 693
1 694
1 695
1 696
1 697
1 698
1 699
1 700
1 701
1 702
1 703
1 704
1 705
1 706
1 707
1 708
1 709
1 710
1 711
1 712
1 713
1 714
1 715
1 716
1 717
1 718
1 719
1 720
1 721
1 722
1 723
1 724
1 725
1 726
1 727
1 728
1 729
1 730
1 731
1 732
1 733
1 734
1 735
1 736
1 737
1 738
1 739
1 740
1 741
1 742
1 743
1 744
1 745
1 746
1 747
1 748
1 749
1 750
1 751
1 752
1 753
1 754
1 755
1 756
1 757
1 758
1 759
1 760
1 761
1 762
1 763
1 764
1 765
1 766
1 767
1 768
1 769
1 770
1 771
1 772
1 773
1 774
1 775
1 776
1 777
1 778
1 779
1 780
1 781
1 782
1 783
1 784
1 785
1 786
1 787
1 788
1 789
1 790
1 791
1 792
1 793
1 794
1 795
1 796
1 797
1 798
1 799
1 800
1 801
1 802
1 803
1 804
1 805
1 806
1 807
1 808
1 809
1 810
1 811
1 812
1 813
1 814
1 815
1 816
1 817
1 818
1 819
1 820
1 821
1 822
1 823
1 824
1 825
1 826
1 827
1 828
1 829
1 830
1 831
1 832
1 833
1 834
1 835
1 836
1 837
1 838
1 839
1 840
1 841
1 842
1 843
1 844
1 845
1 846
1 847
1 848
1 849
1 850
1 851
1 852
1 853
1 854
1 855
1 856
1 857
1 858
1 859
1 860
1 861
1 862
1 863
1 864
1 865
1 866
1 867
1 868
1 869
1 870
1 871
1 872
1 873
1 874
1 875
1 876
1 877
1 878
1 879
1 880
1 881
1 882
1 883
1 884
1 885
1 886
1 887
1 888
1 889
1 890
1 891
1 892
1 893
1 894
1 895
1 896
1 897
1 898
1 899
1 900
1 901
1 902
1 903
1 904
1 905
1 906
1 907
1 908
1 909
1 910
1 911
1 912
1 913
1 914
1 915
1 916
1 917
1 918
1 919
1 920
1 921
1 922
1 923
1 924
1 925
1 926
1 927
1 928
1 929
1 930
1 931
1 932
1 933
1 934
1 935
1 936
1 937
1 938
1 939
1 940
1 941
1 942
1 943
1 944
1 945
1 946
1 947
1 948
1 949
1 950
1 951
1 952
1 953
1 954
1 955
1 956
1 957
1 958
1 959
1 960
1 961
1 962
1 963
1 964
1 965
1 966
1 967
1 968
1 969
1 970
1 971
1 972
1 973
1 974
1 975
1 976
1 977
1 978
1 979
1 980
1 981
1 982
1 983
1 984
1 985
1 986
1 987
1 988
1 989
1 990
1 991
1 992
1 993
1 994
1 995
1 996
1 997
1 998
1 999
1 1000
1 1001
1 1002
1 1003
1 1004
1 1005
1 1006
1 1007
1 1008
1 1009
1 1010
1 1011
1 1012
1 1013
1 1014
1 1015
1 1016
1 1017
1 1018
1 1019
1 1020
1 1021
1 1022
1 1023
POINT_DATA 1024
SCALARS attr0 float
LOOKUP_TABLE default
0
1
2
3
4
5
6
7
8
9
10
11
12
13
14
15
0
1
2
3
4
5
6
7
8
9
10
11
12
13
14
15
0
1
2
3
4
5
6
7
8
9
10
11
12
13
14
15
0
1
2
3
4
5
6
7
8
9
10
11
12
13
14
15
0
1
2
3
4
5
6
7
8
9
10
11
12
13
14
15
0
1
2
3
4
5
6
7
8
9
10
11
12
13
14
15
0
1
2
3
4
5
6
7
8
9
10
11
12
13
14
15
0
1
2
3
4
5
6
7
8
9
10
11
12
13
14
15
0
1
2
3
4
5
6
7
8
9
10
11
12
13
14
15
0
1
2
3
4
5
6
7
8
9
10
11
12
13
14
15
0
1
2
3
4
5
6
7
8
9
10
11
12
13
14
15
0
1
2
3
4
5
6
7
8
9
10
11
12
13
14
15
0
1
2
3
4
5
6
7
8
9
10
11
12
13
14
15
0
1
2
3
4
5
6
7
8
9
10
11
12
13
14
15
0
1
2
3
4
5
6
7
8
9
10
11
12
13
14
15
0
1
2
3
4
5
6
7
8
9
10
11
12
13
14
15
0
1
2
3
4
5
6
7
8
9
10
11
12
13
14
15
0
1
2
3
4
5
6
7
8
9
10
11
12
13
14
15
0
1
2
3
4
5
6
7
8
9
10
11
12
13
14
15
0
1
2
3
4
5
6
7
8
9
10
11
12
13
14
15
0
1
2
3
4
5
6
7
8
9
10
11
12
13
14
15
0
1
2
3
4
5
6
7
8
9
10
11
12
13
14
15
0
1
2
3
4
5
6
7
8
9
10
11
12
13
14
15
0
1
2
3
4
5
6
7
8
9
10
11
12
13
14
15
0
1
2
3
4
5
6
7
8
9
10
11
12
13
14
15
0
1
2
3
4
5
6
7
8
9
10
11
12
13
14
15
0
1
2
3
4
5
6
7
8
9
10
11
12
13
14
15
0
1
2
3
4
5
6
7
8
9
10
11
12
13
14
15
0
1
2
3
4
5
6
7
8
9
10
11
12
13
14
15
0
1
2
3
4
5
6
7
8
9
10
11
12
13
14
15
0
1
2
3
4
5
6
7
8
9
10
11
12
13
14
15
0
1
2
3
4
5
6
7
8
9
10
11
12
13
14
15
0
1
2
3
4
5
6
7
8
9
10
11
12
13
14
15
0
1
2
3
4
5
6
7
8
9
10
11
12
13
14
15
0
1
2
3
4
5
6
7
8
9
10
11
12
13
14
15
0
1
2
3
4
5
6
7
8
9
10
11
12
13
14
15
0
1
2
3
4
5
6
7
8
9
10
11
12
13
14
15
0
1
2
3
4
5
6
7
8
9
10
11
12
13
14
15
0
1
2
3
4
5
6
7
8
9
10
11
12
13
14
15
0
1
2
3
4
5
6
7
8
9
10
11
12
13
14
15
0
1
2
3
4
5
6
7
8
9
10
11
12
13
14
15
0
1
2
3
4
5
6
7
8
9
10
11
12
13
14
15
0
1
2
3
4
5
6
7
8
9
10
11
12
13
14
15
0
1
2
3
4
5
6
7
8
9
10
11
12
13
14
15
0
1
2
3
4
5
6
7
8
9
10
11
12
13
14
15
0
1
2
3
4
5
6
7
8
9
10
11
12
13
14
15
0
1
2
3
4
5
6
7
8
9
10
11
12
13
14
15
0
1
2
3
4
5
6
7
8
9
10
11
12
13
14
15
0
1
2
3
4
5
6
7
8
9
10
11
12
13
14
15
0
1
2
3
4
5
6
7
8
9
10
11
12
13
14
15
0
1
2
3
4
5
6
7
8
9
10
11
12
13
14
15
0
1
2
3
4
5
6
7
8
9
10
11
12
13
14
15
0
1
2
3
4
5
6
7
8
9
10
11
12
13
14
15
0
1
2
3
4
5
6
7
8
9
10
11
12
13
14
15
0
1
2
3
4
5
6
7
8
9
10
11
12
13
14
15
0
1
2
3
4
5
6
7
8
9
10
11
12
13
14
15
0
1
2
3
4
5
6
7
8
9
10
11
12
13
14
15
0
1
2
3
4
5
6
7
8
9
10
11
12
13
14
15
0
1
2
3
4
5
6
7
8
9
10
11
12
13
14
15
0
1
2
3
4
5
6
7
8
9
10
11
12
13
14
15
0
1
2
3
4
5
6
7
8
9
10
11
12
13
14
15
0
1
2
3
4
5
6
7
8
9
10
11
12
13
14
15
0
1
2
3
4
5
6
7
8
9
10
11
12
13
14
15
0
1
2
3
4
5
6
7
8
9
10
11
12
13
14
15
SCALARS attr1 float
LOOKUP_TABLE default
0
0
0
0
0
0
0
0
0
0
0
0
0
0
0
0
1
1
1
1
1
1
1
1
1
1
1
1
1
1
1
1
2
2
2
2
2
2
2
2
2
2
2
2
2
2
2
2
3
3
3
3
3
3
3
3
3
3
3
3
3
3
3
3
4
4
4
4
4
4
4
4
4
4
4
4
4
4
4
4
5
5
5
5
5
5
5
5
5
5
5
5
5
5
5
5
6
6
6
6
6
6
6
6
6
6
6
6
6
6
6
6
7
7
7
7
7
7
7
7
7
7
7
7
7
7
7
7
8
8
8
8
8
8
8
8
8
8
8
8
8
8
8
8
9
9
9
9
9
9
9
9
9
9
9
9
9
9
9
9
10
10
10
10
10
10
10
10
10
10
10
10
10
10
10
10
11
11
11
11
11
11
11
11
11
11
11
11
11
11
11
11
12
12
12
12
12
12
12
12
12
12
12
12
12
12
12
12
13
13
13
13
13
13
13
13
13
13
13
13
13
13
13
13
14
14
14
14
14
14
14
14
14
14
14
14
14
14
14
14
15
15
15
15
15
15
15
15
15
15
15
15
15
15
15
15
0
0
0
0
0
0
0
0
0
0
0
0
0
0
0
0
1
1
1
1
1
1
1
1
1
1
1
1
1
1
1
1
2
2
2
2
2
2
2
2
2
2
2
2
2
2
2
2
3
3
3
3
3
3
3
3
3
3
3
3
3
3
3
3
4
4
4
4
4
4
4
4
4
4
4
4
4
4
4
4
5
5
5
5
5
5
5
5
5
5
5
5
5
5
5
5
6
6
6
6
6
6
6
6
6
6
6
6
6
6
6
6
7
7
7
7
7
7
7
7
7
7
7
7
7
7
7
7
8
8
8
8
8
8
8
8
8
8
8
8
8
8
8
8
9
9
9
9
9
9
9
9
9
9
9
9
9
9
9
9
10
10
10
10
10
10
10
10
10
10
10
10
10
10
10
10
11
11
11
11
11
11
11
11
11
11
11
11
11
11
11
11
12
12
12
12
12
12
12
12
12
12
12
12
12
12
12
12
13
13
13
13
13
13
13
13
13
13
13
13
13
13
13
13
14
14
14
14
14
14
14
14
14
14
14
14
14
14
14
14
15
15
15
15
15
15
15
15
15
15
15
15
15
15
15
15
0
0
0
0
0
0
0
0
0
0
0
0
0
0
0
0
1
1
1
1
1
1
1
1
1
1
1
1
1
1
1
1
2
2
2
2
2
2
2
2
2
2
2
2
2
2
2
2
3
3
3
3
3
3
3
3
3
3
3
3
3
3
3
3
4
4
4
4
4
4
4
4
4
4
4
4
4
4
4
4
5
5
5
5
5
5
5
5
5
5
5
5
5
5
5
5
6
6
6
6
6
6
6
6
6
6
6
6
6
6
6
6
7
7
7
7
7
7
7
7
7
7
7
7
7
7
7
7
8
8
8
8
8
8
8
8
8
8
8
8
8
8
8
8
9
9
9
9
9
9
9
9
9
9
9
9
9
9
9
9
10
10
10
10
10
10
10
10
10
10
10
10
10
10
10
10
11
11
11
11
11
11
11
11
11
11
11
11
11
11
11
11
12
12
12
12
12
12
12
12
12
12
12
12
12
12
12
12
13
13
13
13
13
13
13
13
13
13
13
13
13
13
13
13
14
14
14
14
14
14
14
14
14
14
14
14
14
14
14
14
15
15
15
15
15
15
15
15
15
15
15
15
15
15
15
15
0
0
0
0
0
0
0
0
0
0
0
0
0
0
0
0
1
1
1
1
1
1
1
1
1
1
1
1
1
1
1
1
2
2
2
2
2
2
2
2
2
2
2
2
2
2
2
2
3
3
3
3
3
3
3
3
3
3
3
3
3
3
3
3
4
4
4
4
4
4
4
4
4
4
4
4
4
4
4
4
5
5
5
5
5
5
5
5
5
5
5
5
5
5
5
5
6
6
6
6
6
6
6
6
6
6
6
6
6
6
6
6
7
7
7
7
7
7
7
7
7
7
7
7
7
7
7
7
8
8
8
8
8
8
8
8
8
8
8
8
8
8
8
8
9
9
9
9
9
9
9
9
9
9
9
9
9
9
9
9
10
10
10
10
10
10
10
10
10
10
10
10
10
10
10
10
11
11
11
11
11
11
11
11
11
11
11
11
11
11
11
11
12
12
12
12
12
12
12
12
12
12
12
12
12
12
12
12
13
13
13
13
13
13
13
13
13
13
13
13
13
13
13
13
14
14
14
14
14
14
14
14
14
14
14
14
14
14
14
14
15
15
15
15
15
15
15
15
15
15
15
15
15
15
15
15
SCALARS attr2 float
LOOKUP_TABLE default
0
0
0
0
0
0
0
0
0
0
0
0
0
0
0
0
0
0
0
0
0
0
0
0
0
0
0
0
0
0
0
0
0
0
0
0
0
0
0
0
0
0
0
0
0
0
0
0
0
0
0
0
0
0
0
0
0
0
0
0
0
0
0
0
0
0
0
0
0
0
0
0
0
0
0
0
0
0
0
0
0
0
0
0
0
0
0
0
0
0
0
0
0
0
0
0
0
0
0
0
0
0
0
0
0
0
0
0
0
0
0
0
0
0
0
0
0
0
0
0
0
0
0
0
0
0
0
0
0
0
0
0
0
0
0
0
0
0
0
0
0
0
0
0
0
0
0
0
0
0
0
0
0
0
0
0
0
0
0
0
0
0
0
0
0
0
0
0
0
0
0
0
0
0
0
0
0
0
0
0
0
0
0
0
0
0
0
0
0
0
0
0
0
0
0
0
0
0
0
0
0
0
0
0
0
0
0
0
0
0
0
0
0
0
0
0
0
0
0
0
0
0
0
0
0
0
0
0
0
0
0
0
0
0
0
0
0
0
0
0
0
0
0
0
0
0
0
0
0
0
0
0
0
0
0
0
0
0
0
0
0
0
0
0
0
0
0
0
0
0
0
0
0
0
0
0
0
0
0
0
0
0
0
0
0
0
0
0
0
0
0
0
0
0
0
0
0
0
0
0
0
0
0
0
0
0
0
0
0
0
0
0
0
0
0
0
0
0
0
0
0
0
0
0
0
0
0
0
0
0
0
0
0
0
0
0
0
0
0
0
0
0
0
0
0
0
0
0
0
0
0
0
0
0
0
0
0
0
0
0
0
0
0
0
0
0
0
0
0
0
0
0
0
0
0
0
0
0
0
0
0
0
0
0
0
0
0
0
0
0
0
0
0
0
0
0
0
0
0
0
0
0
0
0
0
0
0
0
0
0
0
0
0
0
0
0
0
0
0
0
0
0
0
0
0
0
0
0
0
0
0
0
0
0
0
0
0
0
0
0
0
0
0
0
0
0
0
0
0
0
0
0
0
0
0
0
0
0
0
0
0
0
0
0
0
0
0
0
0
0
0
0
0
0
0
0
0
0
0
0
0
0
0
0
0
0
0
0
0
0
0
0
0
0
0
0
0
0
0
0
0
0
0
0
0
0
0
0
0
0
0
0
0
0
0
0
0
0
0
0
0
0
0
0
0
0
0
0
0
0
0
0
0
0
0
0
0
0
0
0
0
0
0
0
0
0
0
0
0
0
0
0
0
0
0
0
0
0
0
0
0
0
0
0
0
0
0
0
0
0
0
0
0
0
0
0
0
0
0
0
0
0
0
0
0
0
0
0
0
0
0
0
0
0
0
0
0
0
0
0
0
0
0
0
0
0
0
0
0
0
0
0
0
0
0
0
0
0
0
0
0
0
0
0
0
0
0
0
0
0
0
0
0
0
0
0
0
0
0
0
0
0
0
0
0
0
0
0
0
0
0
0
0
0
0
0
0
0
0
0
0
0
0
0
0
0
0
0
0
0
0
0
0
0
0
0
0
0
0
0
0
0
0
0
0
0
0
0
0
0
0
0
0
0
0
0
0
0
0
0
0
0
0
0
0
0
0
0
0
0
0
0
0
0
0
0
0
0
0
0
0
0
0
0
0
0
0
0
0
0
0
0
0
0
0
0
0
0
0
0
0
0
0
0
0
0
0
0
0
0
0
0
0
0
0
0
0
0
0
0
0
0
0
0
0
0
0
0
0
0
0
0
0
0
0
0
0
0
0
0
0
0
0
0
0
0
0
0
0
0
0
0
0
0
0
0
0
0
0
0
0
0
0
0
0
0
0
0
0
0
0
0
0
0
0
0
0
0
0
0
0
0
0
0
0
0
0
0
0
0
0
0
0
0
0
0
0
0
0
0
0
0
0
0
0
0
0
0
0
0
0
0
0
0
0
0
0
0
0
0
0
0
0
0
0
0
0
0
0
0
0
0
0
0
0
0
0
0
0
0
0
0
0
0
0
0
0
0
0
0
0
0
0
0
0
0
0
0
0
0
0
0
0
0
0
0
0
0
0
0
0
0
0
0
0
0
0
0
0
0
0
0
0
0
0
0
0
0
0
0
0
0
0
0
0
0
0
0
0
0
0
0
0
0
0
0
0
0
0
0
0
0
0
0
0
0
0
0
0
0
0
0
0
0
0
0
0
0
0
0
0
0
0
0
0
0
0
0
0
0
0
0
0
0
0
0
0
0
0
0
0
0
0
0
0
0
0
0
0
0
0
0
0
0
0
0
0
0
0
0
0
0
0
0
0
0
0
0
0
0
0
0
0
0
SCALARS attr3 float
LOOKUP_TABLE default
1
1
1
1
1
1
1
1
1
1
1
1
1
1
1
1
1
1
1
1
1
1
1
1
1
1
1
1
1
1
1
1
1
1
1
1
1
1
1
1
1
1
1
1
1
1
1
1
1
1
1
1
1
1
1
1
1
1
1
1
1
1
1
1
1
1
1
1
1
1
1
1
1
1
1
1
1
1
1
1
1
1
1
1
1
1
1
1
1
1
1
1
1
1
1
1
1
1
1
1
1
1
1
1
1
1
1
1
1
1
1
1
1
1
1
1
1
1
1
1
1
1
1
1
1
1
1
1
1
1
1
1
1
1
1
1
1
1
1
1
1
1
1
1
1
1
1
1
1
1
1
1
1
1
1
1
1
1
1
1
1
1
1
1
1
1
1
1
1
1
1
1
1
1
1
1
1
1
1
1
1
1
1
1
1
1
1
1
1
1
1
1
1
1
1
1
1
1
1
1
1
1
1
1
1
1
1
1
1
1
1
1
1
1
1
1
1
1
1
1
1
1
1
1
1
1
1
1
1
1
1
1
1
1
1
1
1
1
1
1
1
1
1
1
1
1
1
1
1
1
1
1
1
1
1
1
1
1
1
1
1
1
1
1
1
1
1
1
1
1
1
1
1
1
1
1
1
1
1
1
1
1
1
1
1
1
1
1
1
1
1
1
1
1
1
1
1
1
1
1
1
1
1
1
1
1
1
1
1
1
1
1
1
1
1
1
1
1
1
1
1
1
1
1
1
1
1
1
1
1
1
1
1
1
1
1
1
1
1
1
1
1
1
1
1
1
1
1
1
1
1
1
1
1
1
1
1
1
1
1
1
1
1
1
1
1
1
1
1
1
1
1
1
1
1
1
1
1
1
1
1
1
1
1
1
1
1
1
1
1
1
1
1
1
1
1
1
1
1
1
1
1
1
1
1
1
1
1
1
1
1
1
1
1
1
1
1
1
1
1
1
1
1
1
1
1
1
1
1
1
1
1
1
1
1
1
1
1
1
1
1
1
1
1
1
1
1
1
1
1
1
1
1
1
1
1
1
1
1
1
1
1
1
1
1
1
1
1
1
1
1
1
1
1
1
1
1
1
1
1
1
1
1
1
1
1
1
1
1
1
1
1
1
1
1
1
1
1
1
1
1
1
1
1
1
1
1
1
1
1
1
1
1
1
1
1
1
1
1
1
1
1
1
1
1
1
1
1
1
1
1
1
1
1
1
1
1
1
1
1
1
1
1
1
1
1
1
1
1
1
1
1
1
1
1
1
1
1
1
1
1
1
1
1
1
1
1
1
1
1
1
1
1
1
1
1
1
1
1
1
1
1
1
1
1
1
1
1
1
1
1
1
1
1
1
1
1
1
1
1
1
1
1
1
1
1
1
1
1
1
1
1
1
1
1
1
1
1
1
1
1
1
1
1
1
1
1
1
1
1
1
1
1
1
1
1
1
1
1
1
1
1
1
1
1
1
1
1
1
1
1
1
1
1
1
1
1
1
1
1
1
1
1
1
1
1
1
1
1
1
1
1
1
1
1
1
1
1
1
1
1
1
1
1
1
1
1
1
1
1
1
1
1
1
1
1
1
1
1
1
1
1
1
1
1
1
1
1
1
1
1
1
1
1
1
1
1
1
1
1
1
1
1
1
1
1
1
1
1
1
1
1
1
1
1
1
1
1
1
1
1
1
1
1
1
1
1
1
1
1
1
1
1
1
1
1
1
1
1
1
1
1
1
1
1
1
1
1
1
1
1
1
1
1
1
1
1
1
1
1
1
1
1
1
1
1
1
1
1
1
1
1
1
1
1
1
1
1
1
1
1
1
1
1
1
1
1
1
1
1
1
1
1
1
1
1
1
1
1
1
1
1
1
1
1
1
1
1
1
1
1
1
1
1
1
1
1
1
1
1
1
1
1
1
1
1
1
1
1
1
1
1
1
1
1
1
1
1
1
1
1
1
1
1
1
1
1
1
1
1
1
1
1
1
1
1
1
1
1
1
1
1
1
1
1
1
1
1
1
1
1
1
1
1
1
1
1
1
1
1
1
1
1
1
1
1
1
1
1
1
1
1
1
1
1
1
1
1
1
1
1
1
1
1
1
1
1
1
1
1
1
1
1
1
1
1
1
1
1
1
1
1
1
1
1
1
1
1
1
1
1
1
1
1
1
1
1
1
1
1
1
1
1
1
1
1
1
1
1
1
1
1
1
1
1
1
1
1
1
1
1
1
1
1
1
1
1
1
1
1
1
1
1
1
1
1
1
1
1
1
1
1
1
1
1
1
1
1
1
1
1
1
1
1
1
1
1
1
1
1
1
1
1
1
VECTORS attr4 float
0 0 0 
1 1 1 
2 2 2 
3 3 3 
4 4 4 
5 5 5 
6 6 6 
7 7 7 
8 8 8 
9 9 9 
10 10 10 
11 11 11 
12 12 12 
13 13 13 
14 14 14 
15 15 15 
16 16 16 
17 17 17 
18 18 18 
19 19 19 
20 20 20 
21 21 21 
22 22 22 
23 23 23 
24 24 24 
25 25 25 
26 26 26 
27 27 27 
28 28 28 
29 29 29 
30 30 30 
31 31 31 
32 32 32 
33 33 33 
34 34 34 
35 35 35 
36 36 36 
37 37 37 
38 38 38 
39 39 39 
40 40 40 
41 41 41 
42 42 42 
43 43 43 
44 44 44 
45 45 45 
46 46 46 
47 47 47 
48 48 48 
49 49 49 
50 50 50 
51 51 51 
52 52 52 
53 53 53 
54 54 54 
55 55 55 
56 56 56 
57 57 57 
58 58 58 
59 59 59 
60 60 60 
61 61 61 
62 62 62 
63 63 63 
64 64 64 
65 65 65 
66 66 66 
67 67 67 
68 68 68 
69 69 69 
70 70 70 
71 71 71 
72 72 72 
73 73 73 
74 74 74 
75 75 75 
76 76 76 
77 77 77 
78 78 78 
79 79 79 
80 80 80 
81 81 81 
82 82 82 
83 83 83 
84 84 84 
85 85 85 
86 86 86 
87 87 87 
88 88 88 
89 89 89 
90 90 90 
91 91 91 
92 92 92 
93 93 93 
94 94 94 
95 95 95 
96 96 96 
97 97 97 
98 98 98 
99 99 99 
100 100 100 
101 101 101 
102 102 102 
103 103 103 
104 104 104 
105 105 105 
106 106 106 
107 107 107 
108 108 108 
109 109 109 
110 110 110 
111 111 111 
112 112 112 
113 113 113 
114 114 114 
115 115 115 
116 116 116 
117 117 117 
118 118 118 
119 119 119 
120 120 120 
121 121 121 
122 122 122 
123 123 123 
124 124 124 
125 125 125 
126 126 126 
127 127 127 
128 128 128 
129 129 129 
130 130 130 
131 131 131 
132 132 132 
133 133 133 
134 134 134 
135 135 135 
136 136 136 
137 137 137 
138 138 138 
139 139 139 
140 140 140 
141 141 141 
142 142 142 
143 143 143 
144 144 144 
145 145 145 
146 146 146 
147 147 147 
148 148 148 
149 149 149 
150 150 150 
151 151 151 
152 152 152 
153 153 153 
154 154 154 
155 155 155 
156 156 156 
157 157 157 
158 158 158 
159 159 159 
160 160 160 
161 161 161 
162 162 162 
163 163 163 
164 164 164 
165 165 165 
166 166 166 
167 167 167 
168 168 168 
169 169 169 
170 170 170 
171 171 171 
172 172 172 
173 173 173 
174 174 174 
175 175 175 
176 176 176 
177 177 177 
178 178 178 
179 179 179 
180 180 180 
181 181 181 
182 182 182 
183 183 183 
184 184 184 
185 185 185 
186 186 186 
187 187 187 
188 188 188 
189 189 189 
190 190 190 
191 191 191 
192 192 192 
193 193 193 
194 194 194 
195 195 195 
196 196 196 
197 197 197 
198 198 198 
199 199 199 
200 200 200 
201 201 201 
202 202 202 
203 203 203 
204 204 204 
205 205 205 
206 206 206 
207 207 207 
208 208 208 
209 209 209 
210 210 210 
211 211 211 
212 212 212 
213 213 213 
214 214 214 
215 215 215 
216 216 216 
217 217 217 
218 218 218 
219 219 219 
220 220 220 
221 221 221 
222 222 222 
223 223 223 
224 224 224 
225 225 225 
226 226 226 