# vtk DataFile Version 3.0
Graph
ASCII
DATASET UNSTRUCTURED_GRID
POINTS 24 float
1.000000 0.500000 0.0
1.000000 0.200000 0.0
0.200000 0.500000 0.0
0.200000 0.200000 0.0
0.200000 0.200000 0.0
0.200000 0.000000 0.0
0.000000 0.200000 0.0
0.000000 0.000000 0.0
0.500000 0.200000 0.0
0.500000 0.000000 0.0
0.200000 0.200000 0.0
0.200000 0.000000 0.0
1.000000 0.200000 0.0
1.000000 0.000000 0.0
0.500000 0.200000 0.0
0.500000 0.000000 0.0
0.200000 0.500000 0.0
0.200000 0.200000 0.0
0.000000 0.500000 0.0
0.000000 0.200000 0.0
1.000000 1.000000 0.0
1.000000 0.500000 0.0
0.000000 1.000000 0.0
0.000000 0.500000 0.0
CELLS 6 30
4  0 1 2 3
4  4 5 6 7
4  8 9 10 11
4  12 13 14 15
4  16 17 18 19
4  20 21 22 23

CELL_TYPES 6
8
8
8
8
8
8
CELL_DATA 6
COLOR_SCALARS data 4
0.595560 0.000000 0.000000 1.0
0.771386 0.000000 0.000000 1.0
0.969554 0.000000 0.000000 1.0
0.869033 0.000000 0.000000 1.0
0.799516 0.000000 0.000000 1.0
0.511738 0.000000 0.000000 1.0

